                  Welcome to Q-Chem
     A Quantum Leap Into The Future Of Chemistry

 Y. Shao, L. Fusti-Molnar, Y. Jung, J. Kussmann, C. Ochsenfeld, S. T. Brown, 
 A. T. B. Gilbert, L. V. Slipchenko, S. V. Levchenko, D. P. O'Neill, 
 R. A. DiStasio Jr., R. C. Lochan, T. Wang, G. J. O. Beran, N. A. Besley, 
 J. M. Herbert, C. Y. Lin, T. Van Voorhis, S. H. Chien, A. Sodt, R. P. Steele, 
 V. A. Rassolov, P. E. Maslen, P. P. Korambath, R. D. Adamson, B. Austin, 
 J. Baker, E. F. C. Byrd, H. Dachsel, R. J. Doerksen, A. Dreuw, B. D. Dunietz, 
 A. D. Dutoi, T. R. Furlani, S. R. Gwaltney, A. Heyden, S. Hirata, C.-P. Hsu, 
 G. Kedziora, R. Z. Khaliullin, P. Klunzinger, A. M. Lee, M. S. Lee, W. Liang, 
 I. Lotan, N. Nair, B. Peters, E. I. Proynov, P. A. Pieniazek, Y. M. Rhee, 
 J. Ritchie, E. Rosta, C. D. Sherrill, A. C. Simmonett, J. E. Subotnik, 
 H. L. Woodcock III, W. Zhang, A. T. Bell, A. K. Chakraborty, D. M. Chipman, 
 F. J. Keil, A. Warshel, W. J. Hehre, H. F. Schaefer III, J. Kong, 
 A. I. Krylov, P. M. W. Gill, M. Head-Gordon

 Additional authors for Version 3.1: 
 Z. Gan, Y. Zhao, N. E. Schultz, D. Truhlar, E. Epifanovsky, M. Oana

 Additional authors for Version 3.2: 
 R. Baer, B. R. Brooks, D. Casanova, J.-D. Chai, C.-L. Cheng, C. Cramer, 
 D. Crittenden, A. Ghysels, G. Hawkins, E. G. Hohenstein, C. Kelley, 
 W. Kurlancheek, D. Liotard, E. Livshits, P. Manohar, A. Marenich, 
 D. Neuhauser, R. Olson, M. A. Rohrdanz, K. S. Thanthiriwatte, A. J. W. Thom, 
 V. Vanovschi, C. F. Williams, Q. Wu, Z.-Q. You

 Additional authors for Version 4.0: 
 A. Aspuru-Guzik, Y. Bernard, C. Chang, J. Deng, A. Dreuw, M. Diedenhofen, 
 R. G. Edgar, D. Ghosh, W. A. Goddard III, M. Goldey, L. D. Jacobson, 
 M. Gordon, B. Kaduk, I. Kaliman, K. Khistyaev, R. King, A. Klamt, 
 D. Kosenkov, T. Kus, D. Lambrecht, A. Landau, A. W. Lange, K. Lawler, F. Liu, 
 J. Liu, R. Olivares-Amaya, S. P. Mao, J. Parkhill, N. Russ, M. Schmidt, 
 N. Shenvi, D. Small, Y. C. Su, E. Sundstrom, L. Vogt, O. Vydrov, M. Watson, 
 M. Wormit, X. Xu, S. Yeganeh, I. Y. Zhang, D. Zuev

 Additional authors for Version 4.1: 
 X. Feng, M. W. D. Hanson-Heine, P. Horn, H. Ji, A. Laurent, R. Peverati, 
 N. Mardirossian, N. Sergueev, S. Sharada, P. Zimmerman

 Q-Chem, Version 4.1, Q-Chem, Inc., Pittsburgh, PA (2013).

 Parts of Q-Chem use Armadillo 3.6.2 (Piazza del Duomo).
 http://arma.sourceforge.net/

 Intel X86 EM64T Linux Version 4.1.2

 Q-chem begins on Fri May 23 05:27:15 2014  

Host: vsp-compute-14.Stanford.EDU
0

     Scratch files written to ./qchem25896//
 Mar814 |home|leeping|src -1
 Using version located at /opt/scratch/leeping/opt/qchem-4.2/bin/qchem


Total Memory Limit in MB = 2000
Mega-Array Size in MB = 800
Warning: disabling incdft.Finally everything over in PARseQInput

--------------------------------------------------------------
User input:
--------------------------------------------------------------
$molecule
0 1
C       -3.5943800000    1.2676300000   -0.0422700000
C       -2.0687200000    1.2542600000   -0.0355200000
H       -3.9815100000    1.6241800000    0.9360600000
H       -3.9748200000    0.2400800000   -0.2221600000
H       -3.9712300000    1.9326500000   -0.8484200000
H       -1.7164200000    0.5679600000    0.7647900000
C       -1.5033900000    2.6547400000    0.2098000000
H       -1.7043800000    0.8761800000   -1.0153400000
H       -1.8645500000    3.0653400000    1.1807400000
H       -1.8498100000    3.3446700000   -0.5891400000
O       -0.1024500000    2.6238100000    0.1879100000
H        0.1883200000    2.2668100000    1.0676000000
$end

$rem
jobtype               opt
exchange              hf
correlation           rimp2
basis                 6-31g*
basis2                r64g
aux_basis             rimp2-vdz
dual_basis_energy     true
n_frozen_core         fc
mem_static            800
geom_opt_max_cycles   100
$end

$opt
constraint
tors 1 2 7 11 -165
tors 2 7 11 12 -75
endconstraint
$end

--------------------------------------------------------------
 ----------------------------------------------------------------
             Standard Nuclear Orientation (Angstroms)
    I     Atom           X                Y                Z
 ----------------------------------------------------------------
    1      C       1.8761021763    -0.1324962170     0.0302900073
    2      C       0.5050847661     0.5324391974    -0.0473946813
    3      H       1.9774001890    -0.6980365238     0.9810949307
    4      H       2.6690243116     0.6438853929    -0.0079211345
    5      H       2.0172947048    -0.8274934026    -0.8248058512
    6      H       0.3955605596     1.2365448156     0.8057517321
    7      C      -0.6178505633    -0.5056753690     0.0021889320
    8      H       0.4335369928     1.1077162840    -0.9959053792
    9      H      -0.5619463456    -1.1081441614     0.9379557095
   10      H      -0.5152920291    -1.2106400717    -0.8503495480
   11      O      -1.8661373584     0.1239541449    -0.0948444288
   12      H      -2.0664977908     0.4989288399     0.8024294225
 ----------------------------------------------------------------
 Molecular Point Group                 C1    NOp =  1
 Largest Abelian Subgroup              C1    NOp =  1
 Nuclear Repulsion Energy =   130.3294661884 hartrees
 There are       17 alpha and       17 beta electrons
 Requested basis set is 6-31G(d)
 There are 32 shells and 76 basis functions

Total QAlloc Memory Limit   2000 MB
Mega-Array Size       783 MB
MEM_STATIC part       800 MB

finished with qalloc call

 Q-Chem warning in module /home/leeping/src/qchem/forms1/BasisType.C, line 1082:

 SAD: How to set up polarization functions for non-Pople basis?

 Requested basis set is rimp2-VDZ
 There are 112 shells and 328 basis functions
 Job number = 2, Threshold = 1.00E-11
Integral type ranges set in mkLRange.C for JobNum: 2  <1-27|1-27>
Symmetry turned off temporarily
 Using the largest function pair in Schwarz integrals
Total number of integrals generated =           47729
Symmetry turned back on
 A cutoff of  1.0D-11 yielded    513 shell pairs
 There are      2995 function pairs
 Job number = 11, Threshold = 1.00E-11
Integral type ranges set in mkLRange.C for JobNum: 11  <1-21|28-28>
Total number of integrals generated =           35940
 Smallest overlap matrix eigenvalue = 4.48E-03
 Multipole matrices computed through 2nd order

  Scale SEOQF with 1.000000e-01/1.000000e+00/1.000000e+00

 Standard Electronic Orientation quadrupole field applied
 Nucleus-field energy     =     0.0000000043 hartrees
 Requested basis set is r64G
 There are 16 shells and 28 basis functions
 Job number = 2, Threshold = 1.00E-11
Integral type ranges set in mkLRange.C for JobNum: 2  <1-12|1-12>
Symmetry turned off temporarily
Total number of integrals generated =            5039
Symmetry turned back on
 A cutoff of  1.0D-11 yielded    133 shell pairs
 There are       427 function pairs
 Job number = 11, Threshold = 1.00E-11
Integral type ranges set in mkLRange.C for JobNum: 11  <1-6|13-13>
Total number of integrals generated =            5124
 Smallest overlap matrix eigenvalue = 2.91E-01
 Multipole matrices computed through 2nd order
 Guess from superposition of atomic densities
 Warning:  Energy on first SCF cycle will be non-variational
scfman initvdwdat 
 A restricted Hartree-Fock SCF calculation will be
 performed using Pulay DIIS extrapolation
 SCF converges when DIIS error is below 1.0E-08
Finding J and K together
 Job number = 22, Threshold = 1.00E-11
Integral type ranges set in mkLRange.C for JobNum: 22  <1-6|1-6>
Storing 1989.74% of integrals
Total number of integrals generated =           92832
Fock build time:  0.10 s (CPU) 0.12 s (wall)
DIIS Errors:  Max 1.20E+00 RMS 1.88E-01

Current DIIS subspace size = 1
REM_GRID_RESTART_DIIS = 0

 ---------------------------------------
  Cycle       Energy         DIIS Error
 ---------------------------------------
    1    -191.9293453886      1.88E-01  00000
Finding J and K together
 Job number = 22, Threshold = 1.00E-11
Integral type ranges set in mkLRange.C for JobNum: 22  <1-6|1-6>
Storing 1989.74% of integrals
Reusing in-core integrals buffer for job 22
Fock build time:  0.01 s (CPU) 0.01 s (wall)
DIIS Errors:  Max 1.76E-01 RMS 2.43E-02

Current DIIS subspace size = 2
REM_GRID_RESTART_DIIS = 0

    2    -192.8659933308      2.43E-02  00000
Finding J and K together
 Job number = 22, Threshold = 1.00E-11
Integral type ranges set in mkLRange.C for JobNum: 22  <1-6|1-6>
Storing 1989.74% of integrals
Reusing in-core integrals buffer for job 22
Fock build time:  0.01 s (CPU) 0.01 s (wall)
DIIS Errors:  Max 3.39E-02 RMS 6.31E-03

Current DIIS subspace size = 3
REM_GRID_RESTART_DIIS = 0

    3    -192.9529740804      6.31E-03  00000
Finding J and K together
 Job number = 22, Threshold = 1.00E-11
Integral type ranges set in mkLRange.C for JobNum: 22  <1-6|1-6>
Storing 1989.74% of integrals
Reusing in-core integrals buffer for job 22
Fock build time:  0.01 s (CPU) 0.01 s (wall)
DIIS Errors:  Max 7.30E-03 RMS 1.41E-03

Current DIIS subspace size = 4
REM_GRID_RESTART_DIIS = 0

    4    -192.9580622143      1.41E-03  00000
Finding J and K together
 Job number = 22, Threshold = 1.00E-11
Integral type ranges set in mkLRange.C for JobNum: 22  <1-6|1-6>
Storing 1989.74% of integrals
Reusing in-core integrals buffer for job 22
Fock build time:  0.01 s (CPU) 0.01 s (wall)
DIIS Errors:  Max 5.85E-04 RMS 8.81E-05

Current DIIS subspace size = 5
REM_GRID_RESTART_DIIS = 0

    5    -192.9584475022      8.81E-05  00000
Finding J and K together
 Job number = 22, Threshold = 1.00E-11
Integral type ranges set in mkLRange.C for JobNum: 22  <1-6|1-6>
Storing 1989.74% of integrals
Reusing in-core integrals buffer for job 22
Fock build time:  0.01 s (CPU) 0.01 s (wall)
DIIS Errors:  Max 1.64E-04 RMS 2.01E-05

Current DIIS subspace size = 6
REM_GRID_RESTART_DIIS = 0

    6    -192.9584488284      2.01E-05  00000
Finding J and K together
 Job number = 22, Threshold = 1.00E-11
Integral type ranges set in mkLRange.C for JobNum: 22  <1-6|1-6>
Storing 1989.74% of integrals
Reusing in-core integrals buffer for job 22
Fock build time:  0.01 s (CPU) 0.01 s (wall)
DIIS Errors:  Max 2.46E-05 RMS 3.53E-06

Current DIIS subspace size = 7
REM_GRID_RESTART_DIIS = 0

    7    -192.9584489220      3.53E-06  00000
Finding J and K together
 Job number = 22, Threshold = 1.00E-11
Integral type ranges set in mkLRange.C for JobNum: 22  <1-6|1-6>
Storing 1989.74% of integrals
Reusing in-core integrals buffer for job 22
Fock build time:  0.01 s (CPU) 0.01 s (wall)
DIIS Errors:  Max 8.50E-06 RMS 8.82E-07

Current DIIS subspace size = 8
REM_GRID_RESTART_DIIS = 0

    8    -192.9584489246      8.82E-07  00000
Finding J and K together
 Job number = 22, Threshold = 1.00E-11
Integral type ranges set in mkLRange.C for JobNum: 22  <1-6|1-6>
Storing 1989.74% of integrals
Reusing in-core integrals buffer for job 22
Fock build time:  0.01 s (CPU) 0.01 s (wall)
DIIS Errors:  Max 1.62E-06 RMS 1.45E-07
 Singularity in Pulay DIIS matrix

Current DIIS subspace size = 9
REM_GRID_RESTART_DIIS = 0

NextCycle: DoReset = 1
    9    -192.9584489248      1.45E-07  00000
Finding J and K together
 Job number = 22, Threshold = 1.00E-11
Integral type ranges set in mkLRange.C for JobNum: 22  <1-6|1-6>
Storing 1989.74% of integrals
Reusing in-core integrals buffer for job 22
Fock build time:  0.01 s (CPU) 0.01 s (wall)
DIIS Errors:  Max 7.05E-07 RMS 5.98E-08

Current DIIS subspace size = 2
REM_GRID_RESTART_DIIS = 0

   10    -192.9584489248      5.98E-08  00000
Finding J and K together
 Job number = 22, Threshold = 1.00E-11
Integral type ranges set in mkLRange.C for JobNum: 22  <1-6|1-6>
Storing 1989.74% of integrals
Reusing in-core integrals buffer for job 22
Fock build time:  0.01 s (CPU) 0.01 s (wall)
DIIS Errors:  Max 8.21E-08 RMS 9.54E-09

Current DIIS subspace size = 3
REM_GRID_RESTART_DIIS = 0

   11    -192.9584489248      9.54E-09  00000 Convergence criterion met
 ---------------------------------------
 SCF time:  CPU 0.21 s  wall 0.23 s
 SCF   energy in the small basis set = -192.9584489248
 Total energy in the small basis set = -192.9584489248
 OvProjection to generate starting density matrix.
  NAlpha  = 17
  NBeta   = 17
  NBasis1 = 28
  NBasis2 = 76
 Using Overlap Pojector (with SVD) for new coefficients.
 A restricted Hartree-Fock SCF calculation will be
 performed using Pulay DIIS extrapolation
 SCF converges when DIIS error is below 1.0E-08
Labelling shells for dual-basis integrals.
Using Integral Screening
Finding J and K together
 ML is being used
 Job number = 22, Threshold = 1.00E-11
Integral type ranges set in mkLRange.C for JobNum: 22  <1-21|1-21>
Total number of integrals generated =         4003242
Fock build time:  0.25 s (CPU) 0.32 s (wall)
DIIS Errors:  Max 2.09E-01 RMS 1.62E-02

Current DIIS subspace size = 1
REM_GRID_RESTART_DIIS = 0

 ETot:    -192.958448921464
 dual-basis energy correction:      -0.125325226682
 ---------------------------------------
  Cycle       Energy         DIIS Error
 ---------------------------------------
    1    -193.0837741481      1.62E-02  00000    Including correction
Skipping free of jCA and jEA for dbscf
 SCF time:  CPU 0.25 s  wall 0.32 s
Symmetry turned off temporarily
-------------------------------------------------------------------------
-------------------------------------------------------------------------

Entering the High Performance RI-MP2 Gradient Code Version 1.2.
Written by Robert A. DiStasio Jr. (03/05-08/05)
Now performing a force calculation at the RI-MP2 level of theory.

-------------------------------------------------------------------------
-------------------------------------------------------------------------
BEGIN STEP 1: Construction and Storage of the (P|Q)^-1 Matrix.
Forming the (P|Q)^-1 matrix.
 Entering AOints
 Job number = 66, Threshold = 1.00E-11
Integral type ranges set in mkLRange.C for JobNum: 66  <22-27|22-27>
Storing 40.53% of integrals
Total number of integrals generated =           58618
END STEP 1
BEGIN STEP 2: Construction and Storage of the Three-Centered Integrals (ia|P).
Forming the three-centered integrals.
 NBasAux in rimp2.F =          328
 
 Entering first-index batching code with I1Strt =    5 batch size =   13
 Job number = 65, Threshold = 1.00E-11
Integral type ranges set in mkLRange.C for JobNum: 65  <1-21|22-27>
Storing 40.53% of integrals
Total number of integrals generated =         1018300
END STEP 2
BEGIN STEP 3: Construction and Storage of the C Matrix.
Forming the C Matrix in the alpha subspace.
END STEP 3
BEGIN STEP 4: Gradient Builder I.
Dynamically calculated OBS = 13.
Dynamically calculated VBS = 59.
The Number of Occupied Orbitals = 13.
The Number of Virtual Orbitals = 59.
Dynamically calculated OBS = 13.
Dynamically calculated VBS = 59.
The Number of Occupied Batches is 1.
The Number of Virtual Batches is 1.

Components of the RI-MP2 Correlation Energy:
RI-MP2 ENERGY (aa|aa)   	=              -0.0706952382 au
RI-MP2 ENERGY (aa|bb)   	=              -0.2197052714 au
RI-MP2 ENERGY (bb|aa)   	=              -0.2197052714 au
RI-MP2 ENERGY (bb|bb)   	=              -0.0706952382 au
RI-MP2 SINGLES ENERGY           =              -0.0000000000 au

RI-MP2 CORRELATION ENERGY	=              -0.5808010193 au
RI-MP2 TOTAL ENERGY		=            -193.6645751674 au
END STEP 4
BEGIN STEP 5: Gradient Builder II.
END STEP 5
BEGIN STEP 6: GiaQ Transposition.

Entering the 'Three Index Transposition Function'

The batch size chosen was: 16
The number of fast-indexed elements: 59
The number of medium-indexed elements: 328
The number of slow-indexed elements: 13
The number of batches will be: 1
BS = 13
END STEP 6
BEGIN STEP 7: Gradient Builder III.
 Job number = 67, Threshold = 1.00E-11
Integral type ranges set in mkLRange.C for JobNum: 67  <1-21|22-27>
Storing 40.53% of integrals
 Job number = 167, Threshold = 1.00E-11
Integral type ranges set in mkLRange.C for JobNum: 67  <1-21|22-27>
 Job number = 164, Threshold = 1.00E-11
Integral type ranges set in mkLRange.C for JobNum: 64  <22-27|22-27>
Total number of integrals generated =           58618
END STEP 7
BEGIN STEP 8.
Forming the P(2) and W(2) Matrices in the alpha subspace.
END STEP 8
BEGIN STEP 9: Lagrangian Assembly and Solution of the Z-vector equations.
 Using LS Screening for RHS ints
Finding J and K together
 ML is being used
 Job number = 22, Threshold = 1.00E-11
Integral type ranges set in mkLRange.C for JobNum: 22  <1-21|1-21>
reading in ls label
Total number of integrals generated =         3904685
 Here (after Lag build) we project to new basis:           28  functions
DualProjection:
 nbf1 = 76
 nbf2 = 28
In big_to_small.C, switching to the small basis.

***************************************************************
For dual-basis calculation, we remember the OV space variables:
ISpin = 0
MaxSz = 187	MaxSpc = 187
NOa   = 17	NOb    = 17	NVa  = 11	NVb = 11
NOV   = 374	NOVa   = 187	NOVb = 187
NAct  = 28
Frozen occupieds = 0
Frozen virtuals  = 0
***************************************************************
 Top of makaov_db.F. Look here for RHS if needed.
 ---------------------------------------------------
 Iter    Rts Conv    Rts Left    Ttl Dev     Max Dev
 ---------------------------------------------------
 Job number = 30, Threshold = 1.00E-11
Integral type ranges set in mkLRange.C for JobNum: 30  <1-6|1-6>
Storing 1989.74% of integrals
Total number of integrals generated =           92832
   1         0           1      0.000456    0.000456
 Job number = 30, Threshold = 1.00E-11
Integral type ranges set in mkLRange.C for JobNum: 30  <1-6|1-6>
Storing 1989.74% of integrals
   2         0           1      0.000051    0.000051
 Job number = 30, Threshold = 1.00E-11
Integral type ranges set in mkLRange.C for JobNum: 30  <1-6|1-6>
Storing 1989.74% of integrals
   3         0           1      0.000012    0.000012
 Job number = 30, Threshold = 1.00E-11
Integral type ranges set in mkLRange.C for JobNum: 30  <1-6|1-6>
Storing 1989.74% of integrals
   4         0           1      0.000003    0.000003
 Job number = 30, Threshold = 1.00E-11
Integral type ranges set in mkLRange.C for JobNum: 30  <1-6|1-6>
Storing 1989.74% of integrals
   5         1           0      0.000000    0.000000    Roots Converged
 ---------------------------------------------------
DualProjection:
 nbf1 = 28
 nbf2 = 76
Finding J and K together
 Job number = 22, Threshold = 1.00E-11
Integral type ranges set in mkLRange.C for JobNum: 22  <1-6|1-6>
Storing 1989.74% of integrals
DualProjection:
 nbf1 = 28
 nbf2 = 76
In small_to_big.C, switching to the big basis.

***************************************************************
For dual-basis calculation, we remember the OV space variables:
ISpin = 0
MaxSz = 1003	MaxSpc = 1003
NOa   = 17	NOb    = 17	NVa  = 59	NVb = 59
NOV   = 2006	NOVa   = 1003	NOVb = 1003
NAct  = 76
Frozen occupieds = 0
Frozen virtuals  = 0
***************************************************************
rps debug: development ON
DualProjection:
 nbf1 = 28
 nbf2 = 76
 Job number = 111, Threshold = 1.00E-11
Integral type ranges set in mkLRange.C for JobNum: 11  <1-21|28-28>
Total number of integrals generated =           35940
 Job number = 127, Threshold = 1.00E-11
Integral type ranges set in mkLRange.C for JobNum: 27  <1-21|1-21>
Total number of integrals generated =         3690731
 Gradient of the Dual-Basis Energy:
            1           2           3           4           5           6
    1  -0.0100266  -0.0030384  -0.0012979   0.0064318  -0.0003724   0.0012227
    2   0.0002335  -0.0015186  -0.0052980   0.0119498  -0.0072093   0.0058125
    3  -0.0008700  -0.0001379   0.0121062  -0.0006921  -0.0112686   0.0110653
            7           8           9          10          11          12
    1  -0.0279841   0.0032984  -0.0032695   0.0044103   0.0333799  -0.0027542
    2   0.0133487   0.0052995  -0.0053024  -0.0090550  -0.0108965   0.0026357
    3  -0.0053782  -0.0129859   0.0105579  -0.0089208  -0.0031945   0.0097186
END STEP 9
 ------------------------------------------------------------------------------
                     RIMP2 GRADIENT: Timing summary (seconds)
 ------------------------------------------------------------------------------
     job step          cpu (% of tot)      sys (% of tot)     wall (% of tot)
 ------------------------------------------------------------------------------
  2C2E INTS         0.5799E-01 ( 2.1)   0.0000E+00 ( 0.0)   0.7706E-01 ( 2.5)
  3C2E INTS         0.1230E+00 ( 4.4)   0.2000E-05 (13.3)   0.1735E+00 ( 5.6)
  C Matrix          0.1900E-01 ( 0.7)   0.0000E+00 ( 0.0)   0.1882E-01 ( 0.6)
  Gradient I        0.1210E+00 ( 4.3)   0.2000E-05 (13.3)   0.1211E+00 ( 3.9)
  Loading (ia|P)    0.0000E+00 ( 0.0)   0.0000E+00 ( 0.0)   0.4017E-03 ( 0.0)
  Loading C         0.5998E-02 ( 0.2)   0.0000E+00 ( 0.0)   0.4430E-02 ( 0.1)
  Making (ia|jb)    0.3999E-01 ( 1.4)   0.0000E+00 ( 0.0)   0.4080E-01 ( 1.3)
  Making t          0.5000E-02 ( 0.2)   0.0000E+00 ( 0.0)   0.4494E-02 ( 0.1)
  Evaluating E      0.0000E+00 ( 0.0)   0.0000E+00 ( 0.0)   0.1550E-02 ( 0.1)
  Making RHFt       0.3000E-02 ( 0.1)   0.0000E+00 ( 0.0)   0.1458E-02 ( 0.0)
  Accumulation      0.2000E-02 ( 0.1)   0.0000E+00 ( 0.0)   0.2104E-02 ( 0.1)
  Making Pca        0.7999E-02 ( 0.3)   0.0000E+00 ( 0.0)   0.8014E-02 ( 0.3)
  Making GiaQ       0.3800E-01 ( 1.4)   0.0000E+00 ( 0.0)   0.3982E-01 ( 1.3)
  Pre-Extract t     0.2000E-02 ( 0.1)   0.1000E-05 ( 6.7)   0.1848E-02 ( 0.1)
  Write t           0.2000E-02 ( 0.1)   0.0000E+00 ( 0.0)   0.2318E-02 ( 0.1)
  Write Giaq        0.0000E+00 ( 0.0)   0.0000E+00 ( 0.0)   0.5460E-03 ( 0.0)
  Read t            0.2000E-02 ( 0.1)   0.1000E-05 ( 6.7)   0.1300E-02 ( 0.0)
  Post-Extract t    0.2999E-02 ( 0.1)   0.0000E+00 ( 0.0)   0.3435E-02 ( 0.1)
  Making Pkj        0.5000E-02 ( 0.2)   0.0000E+00 ( 0.0)   0.4240E-02 ( 0.1)
  Gradient II       0.1700E-01 ( 0.6)   0.0000E+00 ( 0.0)   0.1667E-01 ( 0.5)
  Loading C/GiaQ    0.1000E-02 ( 0.0)   0.0000E+00 ( 0.0)   0.6976E-03 ( 0.0)
  GiaQ Transpose    0.2000E-02 ( 0.1)   0.0000E+00 ( 0.0)   0.2061E-02 ( 0.1)
  Step 7            0.4469E+00 (16.0)   0.1000E-05 ( 6.7)   0.5161E+00 (16.7)
  JobNum=67         0.1100E+00 ( 3.9)   0.0000E+00 ( 0.0)   0.1099E+00 ( 3.5)
  JobNum=167        0.3130E+00 (11.2)   0.1000E-05 ( 6.7)   0.3754E+00 (12.1)
  JobNum=164        0.1800E-01 ( 0.6)   0.0000E+00 ( 0.0)   0.2475E-01 ( 0.8)
  Step 8            0.1000E-02 ( 0.0)   0.0000E+00 ( 0.0)   0.9971E-03 ( 0.0)
  Step 9            0.2013E+01 (71.9)   0.1000E-04 (66.7)   0.2172E+01 (70.1)
  relax_dual_scf    0.7199E+00 (25.7)   0.1000E-05 ( 6.7)   0.7200E+00 (23.2)
  DB Lagrangian     0.2190E+00 ( 7.8)   0.1000E-05 ( 6.7)   0.2193E+00 ( 7.1)
  DB Z-vector       0.5009E+00 (17.9)   0.0000E+00 ( 0.0)   0.5007E+00 (16.2)
  scf_dual_grad     0.1293E+01 (46.2)   0.9000E-05 (60.0)   0.1452E+01 (46.9)
  2e AO-DERIs       0.1283E+01 (45.8)   0.9000E-05 (60.0)   0.1441E+01 (46.5)
 ------------------------------------------------------------------------------
   Grand Totals     0.2801E+01          0.1500E-04          0.3098E+01
 ------------------------------------------------------------------------------

Symmetry turned back on
cdman timing      0.001 seconds
Symmetry turned off temporarily
 Analysis of SCF Wavefunction
 
 --------------------------------------------------------------
                    Orbital Energies (a.u.)
 --------------------------------------------------------------
 
 Alpha MOs
 -- Occupied --
-20.534 -11.292 -11.216 -11.205  -1.362  -1.051  -0.909  -0.805
 -0.689  -0.629  -0.602  -0.584  -0.534  -0.499  -0.493  -0.467
 -0.433
 -- Virtual --
  0.206   0.230   0.275   0.286   0.314   0.318   0.333   0.342
  0.401   0.408   0.442   0.727   0.744   0.755   0.789   0.814
  0.906   0.921   0.944   1.012   1.045   1.120   1.132   1.154
  1.157   1.166   1.197   1.208   1.222   1.294   1.327   1.466
  1.618   1.676   1.695   1.818   1.878   1.932   2.050   2.120
  2.218   2.269   2.290   2.300   2.456   2.481   2.585   2.593
  2.662   2.715   2.763   2.808   2.912   3.088   3.231   4.193
  4.574   4.709   4.894
 --------------------------------------------------------------
 
          Ground-State Mulliken Net Atomic Charges

     Atom                 Charge (a.u.)
  ----------------------------------------
      1 C                    -0.457930
      2 C                    -0.289929
      3 H                     0.145673
      4 H                     0.153404
      5 H                     0.149903
      6 H                     0.136602
      7 C                    -0.035320
      8 H                     0.159822
      9 H                     0.130800
     10 H                     0.154751
     11 O                    -0.659960
     12 H                     0.412186
  ----------------------------------------
  Sum of atomic charges =    -0.000000

 -----------------------------------------------------------------
                    Cartesian Multipole Moments
 -----------------------------------------------------------------
    Charge (ESU x 10^10)
                -0.0000
    Dipole Moment (Debye)
         X       0.9717      Y       0.0346      Z       1.4169
       Tot       1.7184
    Quadrupole Moments (Debye-Ang)
        XX     -29.7825     XY      -0.5014     YY     -26.3303
        XZ      -3.5923     YZ       1.0527     ZZ     -24.9032
    Octopole Moments (Debye-Ang^2)
       XXX      -4.8308    XXY       3.8451    XYY      -3.0518
       YYY       0.6610    XXZ       7.3670    XYZ      -1.9768
       YYZ       0.1924    XZZ      -5.1724    YZZ       0.2751
       ZZZ       1.1095
    Hexadecapole Moments (Debye-Ang^3)
      XXXX    -375.4089   XXXY      -4.4075   XXYY     -71.2974
      XYYY      -1.0610   YYYY     -78.3141   XXXZ     -17.3648
      XXYZ       4.1771   XYYZ      -1.4979   YYYZ       1.3386
      XXZZ     -63.6133   XYZZ      -2.3032   YYZZ     -18.8440
      XZZZ      -3.2964   YZZZ       0.8078   ZZZZ     -47.7576
 -----------------------------------------------------------------
 DrvMan is completing analytic gradient of the MP2 energy
 Gradient time:  CPU 0.00 s  wall 0.00 s
 ------------------------------------------------------------------------------
                     drvman        : Timing summary (seconds)
 ------------------------------------------------------------------------------
     job step          cpu (% of tot)      sys (% of tot)     wall (% of tot)
 ------------------------------------------------------------------------------
 ------------------------------------------------------------------------------
   Grand Totals     0.0000E+00          0.0000E+00          0.1693E-04
 ------------------------------------------------------------------------------
 Geometry Optimization Parameters
   NAtoms,    NIC,     NZ,  NCons,   NDum,   NFix, NCnnct, MaxDiis
       12      75       0       2       0       0       0       0


** CONSTRAINED OPTIMIZATION IN DELOCALIZED INTERNAL COORDINATES **
   Searching for a Minimum

   Optimization Cycle:   1

                       Coordinates (Angstroms)
     ATOM                X               Y               Z
      1  C         1.8761021763   -0.1324962170    0.0302900073
      2  C         0.5050847661    0.5324391974   -0.0473946813
      3  H         1.9774001890   -0.6980365238    0.9810949307
      4  H         2.6690243116    0.6438853929   -0.0079211345
      5  H         2.0172947048   -0.8274934026   -0.8248058512
      6  H         0.3955605596    1.2365448156    0.8057517321
      7  C        -0.6178505633   -0.5056753690    0.0021889320
      8  H         0.4335369928    1.1077162840   -0.9959053792
      9  H        -0.5619463456   -1.1081441614    0.9379557095
     10  H        -0.5152920291   -1.2106400717   -0.8503495480
     11  O        -1.8661373584    0.1239541449   -0.0948444288
     12  H        -2.0664977908    0.4989288399    0.8024294225
   Point Group: c1    Number of degrees of freedom:    30


   Energy is   -193.664575167

              Constraints and their Current Values
                                        Value     Constraint
   Dihedral:        1   2   7  11     -178.932     -165.000
   Dihedral:        2   7  11  12      -78.557      -75.000

 Attempting to Generate Delocalized Internal Coordinates
 GETINT wrote B to file, NVib is           30
 GETINT wrote B to file, NVib is           30
 calling HSSCONV
 HCONV 3*NATOMS:           36
 wrote HINT to file
  writing hessian 

   Using Lagrange Multiplier Algorithm


 32 Hessian modes will be used to form the next step
  Hessian Eigenvalues:
    -0.977753   -0.977753    0.045000    0.054300    0.069923    0.078988
     0.083762    0.084568    0.084900    0.101364    0.118799    0.124484
     0.130166    0.160000    0.160000    0.160000    0.160000    0.219936
     0.220287    0.294167    0.298210    0.321448    0.324274    0.324329
     0.324946    0.325027    0.325036    0.325593    0.453807    0.489587
     1.022753    1.022753

 Minimum Search - Taking P-RFO Step
 Searching for Lamda that Maximizes Along the Constraint modes Only
 Value Taken    Lamda =   0.03023197
 Searching for Lamda that Minimizes Along All other modes
 Value Taken    Lamda =  -0.03798876
 Step Taken.  Stepsize is  0.286979

                             Maximum     Tolerance    Cnvgd?
         Gradient           0.243159      0.000300      NO
         Displacement       0.235157      0.001200      NO
         Energy change     *********      0.000001      NO


 New Cartesian Coordinates Obtained by Inverse Iteration

 Displacement from previous Coordinates is:  0.751654
 ----------------------------------------------------------------
             Standard Nuclear Orientation (Angstroms)
    I     Atom           X                Y                Z
 ----------------------------------------------------------------
    1      C       1.8973416923    -0.1329263062    -0.0057535618
    2      C       0.5139919598     0.5251591130     0.0526131936
    3      H       2.0821572508    -0.7386451266     0.8839213103
    4      H       2.6872103318     0.6179401188    -0.0664893903
    5      H       1.9839840103    -0.7789944228    -0.8815699268
    6      H       0.3686596469     1.2184721079     0.8862708154
    7      C      -0.6131113468    -0.5008002607     0.0778035747
    8      H       0.4431543540     1.0922866701    -0.8775893906
    9      H      -0.5238523499    -1.0720946293     1.0104023702
   10      H      -0.5274303364    -1.2100668420    -0.7481276225
   11      O      -1.8971379138     0.0767838715    -0.2009658905
   12      H      -2.1686876859     0.5638686354     0.6079742296
 ----------------------------------------------------------------
 Molecular Point Group                 C1    NOp =  1
 Largest Abelian Subgroup              C1    NOp =  1
 Nuclear Repulsion Energy =   129.8441500493 hartrees
 There are       17 alpha and       17 beta electrons
 JobOver = FALSE
 Applying Cartesian multipole field
    Component          Value
    ---------          -----
     (2,0,0)        1.00000E-11
     (0,2,0)        2.00000E-10
     (0,0,2)       -3.00000E-10
 Nucleus-field energy     =     0.0000000043 hartrees
 Requested basis set is r64G
 There are 16 shells and 28 basis functions
 Requested basis set is 6-31G(d)
 There are 32 shells and 76 basis functions
 Requested basis set is rimp2-VDZ
 There are 112 shells and 328 basis functions
 Job number = 2, Threshold = 1.00E-11
Integral type ranges set in mkLRange.C for JobNum: 2  <1-12|1-12>
Symmetry turned off temporarily
Total number of integrals generated =            5039
Symmetry turned back on
 A cutoff of  1.0D-11 yielded    133 shell pairs
 There are       427 function pairs
 Job number = 11, Threshold = 1.00E-11
Integral type ranges set in mkLRange.C for JobNum: 11  <1-6|13-13>
Total number of integrals generated =            5124
 Smallest overlap matrix eigenvalue = 2.84E-01
 Multipole matrices computed through 2nd order
 Guess MOs from SCF MO coefficient file
Reading MOs from coefficient file
Reading MOs from coefficient file
 A restricted Hartree-Fock SCF calculation will be
 performed using Pulay DIIS extrapolation
 SCF converges when DIIS error is below 1.0E-08
Geometry optimization detected.  Setting ReadMinima to 0
Setting SaveMinima to 0
Finding J and K together
 Job number = 22, Threshold = 1.00E-11
Integral type ranges set in mkLRange.C for JobNum: 22  <1-6|1-6>
Storing 1989.74% of integrals
Total number of integrals generated =           97948
Fock build time:  0.08 s (CPU) 0.08 s (wall)
DIIS Errors:  Max 1.41E-01 RMS 1.73E-02

Current DIIS subspace size = 1
REM_GRID_RESTART_DIIS = 0

 ---------------------------------------
  Cycle       Energy         DIIS Error
 ---------------------------------------
    1    -193.0057394392      1.73E-02  00000
Finding J and K together
 Job number = 22, Threshold = 1.00E-11
Integral type ranges set in mkLRange.C for JobNum: 22  <1-6|1-6>
Storing 1989.74% of integrals
Reusing in-core integrals buffer for job 22
Fock build time:  0.01 s (CPU) 0.01 s (wall)
DIIS Errors:  Max 1.66E-02 RMS 2.31E-03

Current DIIS subspace size = 2
REM_GRID_RESTART_DIIS = 0

    2    -192.9615491269      2.31E-03  00000
Finding J and K together
 Job number = 22, Threshold = 1.00E-11
Integral type ranges set in mkLRange.C for JobNum: 22  <1-6|1-6>
Storing 1989.74% of integrals
Reusing in-core integrals buffer for job 22
Fock build time:  0.01 s (CPU) 0.01 s (wall)
DIIS Errors:  Max 6.44E-03 RMS 7.98E-04

Current DIIS subspace size = 3
REM_GRID_RESTART_DIIS = 0

    3    -192.9627298340      7.98E-04  00000
Finding J and K together
 Job number = 22, Threshold = 1.00E-11
Integral type ranges set in mkLRange.C for JobNum: 22  <1-6|1-6>
Storing 1989.74% of integrals
Reusing in-core integrals buffer for job 22
Fock build time:  0.01 s (CPU) 0.01 s (wall)
DIIS Errors:  Max 1.31E-03 RMS 1.56E-04

Current DIIS subspace size = 4
REM_GRID_RESTART_DIIS = 0

    4    -192.9628913491      1.56E-04  00000
Finding J and K together
 Job number = 22, Threshold = 1.00E-11
Integral type ranges set in mkLRange.C for JobNum: 22  <1-6|1-6>
Storing 1989.74% of integrals
Reusing in-core integrals buffer for job 22
Fock build time:  0.01 s (CPU) 0.01 s (wall)
DIIS Errors:  Max 3.16E-04 RMS 3.60E-05

Current DIIS subspace size = 5
REM_GRID_RESTART_DIIS = 0

    5    -192.9628969251      3.60E-05  00000
Finding J and K together
 Job number = 22, Threshold = 1.00E-11
Integral type ranges set in mkLRange.C for JobNum: 22  <1-6|1-6>
Storing 1989.74% of integrals
Reusing in-core integrals buffer for job 22
Fock build time:  0.01 s (CPU) 0.01 s (wall)
DIIS Errors:  Max 4.41E-05 RMS 4.77E-06

Current DIIS subspace size = 6
REM_GRID_RESTART_DIIS = 0

    6    -192.9628973124      4.77E-06  00000
Finding J and K together
 Job number = 22, Threshold = 1.00E-11
Integral type ranges set in mkLRange.C for JobNum: 22  <1-6|1-6>
Storing 1989.74% of integrals
Reusing in-core integrals buffer for job 22
Fock build time:  0.01 s (CPU) 0.01 s (wall)
DIIS Errors:  Max 1.12E-05 RMS 1.37E-06

Current DIIS subspace size = 7
REM_GRID_RESTART_DIIS = 0

    7    -192.9628973181      1.37E-06  00000
Finding J and K together
 Job number = 22, Threshold = 1.00E-11
Integral type ranges set in mkLRange.C for JobNum: 22  <1-6|1-6>
Storing 1989.74% of integrals
Reusing in-core integrals buffer for job 22
Fock build time:  0.01 s (CPU) 0.01 s (wall)
DIIS Errors:  Max 2.38E-06 RMS 2.74E-07

Current DIIS subspace size = 8
REM_GRID_RESTART_DIIS = 0

    8    -192.9628973186      2.74E-07  00000
Finding J and K together
 Job number = 22, Threshold = 1.00E-11
Integral type ranges set in mkLRange.C for JobNum: 22  <1-6|1-6>
Storing 1989.74% of integrals
Reusing in-core integrals buffer for job 22
Fock build time:  0.01 s (CPU) 0.01 s (wall)
DIIS Errors:  Max 3.75E-07 RMS 5.29E-08
 Singularity in Pulay DIIS matrix

Current DIIS subspace size = 9
REM_GRID_RESTART_DIIS = 0

NextCycle: DoReset = 1
    9    -192.9628973186      5.29E-08  00000
Finding J and K together
 Job number = 22, Threshold = 1.00E-11
Integral type ranges set in mkLRange.C for JobNum: 22  <1-6|1-6>
Storing 1989.74% of integrals
Reusing in-core integrals buffer for job 22
Fock build time:  0.01 s (CPU) 0.01 s (wall)
DIIS Errors:  Max 1.80E-07 RMS 2.27E-08

Current DIIS subspace size = 2
REM_GRID_RESTART_DIIS = 0

   10    -192.9628973186      2.27E-08  00000
Finding J and K together
 Job number = 22, Threshold = 1.00E-11
Integral type ranges set in mkLRange.C for JobNum: 22  <1-6|1-6>
Storing 1989.74% of integrals
Reusing in-core integrals buffer for job 22
Fock build time:  0.01 s (CPU) 0.01 s (wall)
DIIS Errors:  Max 3.27E-08 RMS 3.06E-09
 Singularity in Pulay DIIS matrix

Current DIIS subspace size = 3
REM_GRID_RESTART_DIIS = 0

NextCycle: DoReset = 1
   11    -192.9628973186      3.06E-09  00000 Convergence criterion met
 ---------------------------------------
 SCF time:  CPU 0.19 s  wall 0.19 s
 SCF   energy in the small basis set = -192.9628973186
 Total energy in the small basis set = -192.9628973186
 Job number = 2, Threshold = 1.00E-11
Integral type ranges set in mkLRange.C for JobNum: 2  <1-27|1-27>
Symmetry turned off temporarily
Total number of integrals generated =           47713
Symmetry turned back on
 A cutoff of  1.0D-11 yielded    512 shell pairs
 There are      2991 function pairs
 OvProjection to generate starting density matrix.
  NAlpha  = 17
  NBeta   = 17
  NBasis1 = 28
  NBasis2 = 76
  Job number = 11, Threshold = 1.00E-11
Integral type ranges set in mkLRange.C for JobNum: 11  <1-21|28-28>
Total number of integrals generated =           35892
 Smallest overlap matrix eigenvalue = 4.53E-03
 Multipole matrices computed through 2nd order
Using Overlap Pojector (with SVD) for new coefficients.
 A restricted Hartree-Fock SCF calculation will be
 performed using Pulay DIIS extrapolation
 SCF converges when DIIS error is below 1.0E-08
Geometry optimization detected.  Setting ReadMinima to 0
Setting SaveMinima to 0
Labelling shells for dual-basis integrals.
Using Integral Screening
Finding J and K together
 ML is being used
 Job number = 22, Threshold = 1.00E-11
Integral type ranges set in mkLRange.C for JobNum: 22  <1-21|1-21>
Total number of integrals generated =         3936896
Fock build time:  0.22 s (CPU) 0.22 s (wall)
DIIS Errors:  Max 2.11E-01 RMS 1.61E-02

Current DIIS subspace size = 1
REM_GRID_RESTART_DIIS = 0

 ETot:    -192.962897319273
 dual-basis energy correction:      -0.121228532779
 ---------------------------------------
  Cycle       Energy         DIIS Error
 ---------------------------------------
    1    -193.0841258521      1.61E-02  00000    Including correction
Skipping free of jCA and jEA for dbscf
 SCF time:  CPU 0.23 s  wall 0.23 s
Symmetry turned off temporarily
-------------------------------------------------------------------------
-------------------------------------------------------------------------

Entering the High Performance RI-MP2 Gradient Code Version 1.2.
Written by Robert A. DiStasio Jr. (03/05-08/05)
Now performing a force calculation at the RI-MP2 level of theory.

-------------------------------------------------------------------------
-------------------------------------------------------------------------
BEGIN STEP 1: Construction and Storage of the (P|Q)^-1 Matrix.
Forming the (P|Q)^-1 matrix.
 Entering AOints
 Job number = 66, Threshold = 1.00E-11
Integral type ranges set in mkLRange.C for JobNum: 66  <22-27|22-27>
Storing 40.63% of integrals
Total number of integrals generated =           58618
END STEP 1
BEGIN STEP 2: Construction and Storage of the Three-Centered Integrals (ia|P).
Forming the three-centered integrals.
 NBasAux in rimp2.F =          328
 
 Entering first-index batching code with I1Strt =    5 batch size =   13
 Job number = 65, Threshold = 1.00E-11
Integral type ranges set in mkLRange.C for JobNum: 65  <1-21|22-27>
Storing 40.63% of integrals
Total number of integrals generated =         1016940
END STEP 2
BEGIN STEP 3: Construction and Storage of the C Matrix.
Forming the C Matrix in the alpha subspace.
END STEP 3
BEGIN STEP 4: Gradient Builder I.
Dynamically calculated OBS = 13.
Dynamically calculated VBS = 59.
The Number of Occupied Orbitals = 13.
The Number of Virtual Orbitals = 59.
Dynamically calculated OBS = 13.
Dynamically calculated VBS = 59.
The Number of Occupied Batches is 1.
The Number of Virtual Batches is 1.

Components of the RI-MP2 Correlation Energy:
RI-MP2 ENERGY (aa|aa)   	=              -0.0707992183 au
RI-MP2 ENERGY (aa|bb)   	=              -0.2195919176 au
RI-MP2 ENERGY (bb|aa)   	=              -0.2195919176 au
RI-MP2 ENERGY (bb|bb)   	=              -0.0707992183 au
RI-MP2 SINGLES ENERGY           =              -0.0000000000 au

RI-MP2 CORRELATION ENERGY	=              -0.5807822717 au
RI-MP2 TOTAL ENERGY		=            -193.6649081237 au
END STEP 4
BEGIN STEP 5: Gradient Builder II.
END STEP 5
BEGIN STEP 6: GiaQ Transposition.

Entering the 'Three Index Transposition Function'

The batch size chosen was: 16
The number of fast-indexed elements: 59
The number of medium-indexed elements: 328
The number of slow-indexed elements: 13
The number of batches will be: 1
BS = 13
END STEP 6
BEGIN STEP 7: Gradient Builder III.
 Job number = 67, Threshold = 1.00E-11
Integral type ranges set in mkLRange.C for JobNum: 67  <1-21|22-27>
Storing 40.63% of integrals
 Job number = 167, Threshold = 1.00E-11
Integral type ranges set in mkLRange.C for JobNum: 67  <1-21|22-27>
 Job number = 164, Threshold = 1.00E-11
Integral type ranges set in mkLRange.C for JobNum: 64  <22-27|22-27>
Total number of integrals generated =           58618
END STEP 7
BEGIN STEP 8.
Forming the P(2) and W(2) Matrices in the alpha subspace.
END STEP 8
BEGIN STEP 9: Lagrangian Assembly and Solution of the Z-vector equations.
 Using LS Screening for RHS ints
Finding J and K together
 ML is being used
 Job number = 22, Threshold = 1.00E-11
Integral type ranges set in mkLRange.C for JobNum: 22  <1-21|1-21>
Total number of integrals generated =         3891520
 Here (after Lag build) we project to new basis:           28  functions
DualProjection:
 nbf1 = 76
 nbf2 = 28
In big_to_small.C, switching to the small basis.

***************************************************************
For dual-basis calculation, we remember the OV space variables:
ISpin = 0
MaxSz = 187	MaxSpc = 187
NOa   = 17	NOb    = 17	NVa  = 11	NVb = 11
NOV   = 374	NOVa   = 187	NOVb = 187
NAct  = 28
Frozen occupieds = 0
Frozen virtuals  = 0
***************************************************************
 Top of makaov_db.F. Look here for RHS if needed.
 ---------------------------------------------------
 Iter    Rts Conv    Rts Left    Ttl Dev     Max Dev
 ---------------------------------------------------
 Job number = 30, Threshold = 1.00E-11
Integral type ranges set in mkLRange.C for JobNum: 30  <1-6|1-6>
Storing 1989.74% of integrals
Total number of integrals generated =           92824
   1         0           1      0.000461    0.000461
 Job number = 30, Threshold = 1.00E-11
Integral type ranges set in mkLRange.C for JobNum: 30  <1-6|1-6>
Storing 1989.74% of integrals
   2         0           1      0.000051    0.000051
 Job number = 30, Threshold = 1.00E-11
Integral type ranges set in mkLRange.C for JobNum: 30  <1-6|1-6>
Storing 1989.74% of integrals
   3         0           1      0.000013    0.000013
 Job number = 30, Threshold = 1.00E-11
Integral type ranges set in mkLRange.C for JobNum: 30  <1-6|1-6>
Storing 1989.74% of integrals
   4         0           1      0.000003    0.000003
 Job number = 30, Threshold = 1.00E-11
Integral type ranges set in mkLRange.C for JobNum: 30  <1-6|1-6>
Storing 1989.74% of integrals
   5         1           0      0.000000    0.000000    Roots Converged
 ---------------------------------------------------
DualProjection:
 nbf1 = 28
 nbf2 = 76
Finding J and K together
 Job number = 22, Threshold = 1.00E-11
Integral type ranges set in mkLRange.C for JobNum: 22  <1-6|1-6>
Storing 1989.74% of integrals
DualProjection:
 nbf1 = 28
 nbf2 = 76
In small_to_big.C, switching to the big basis.

***************************************************************
For dual-basis calculation, we remember the OV space variables:
ISpin = 0
MaxSz = 1003	MaxSpc = 1003
NOa   = 17	NOb    = 17	NVa  = 59	NVb = 59
NOV   = 2006	NOVa   = 1003	NOVb = 1003
NAct  = 76
Frozen occupieds = 0
Frozen virtuals  = 0
***************************************************************
rps debug: development ON
DualProjection:
 nbf1 = 28
 nbf2 = 76
 Job number = 111, Threshold = 1.00E-11
Integral type ranges set in mkLRange.C for JobNum: 11  <1-21|28-28>
Total number of integrals generated =           35892
 Job number = 127, Threshold = 1.00E-11
Integral type ranges set in mkLRange.C for JobNum: 27  <1-21|1-21>
Total number of integrals generated =         3666804
 Gradient of the Dual-Basis Energy:
            1           2           3           4           5           6
    1   0.0011794  -0.0010466  -0.0017227   0.0005594   0.0019251  -0.0068850
    2  -0.0010012   0.0029369   0.0013056   0.0000107  -0.0005715   0.0007719
    3  -0.0130647   0.0182471   0.0004261  -0.0003189  -0.0004287  -0.0002871
            7           8           9          10          11          12
    1  -0.0126751   0.0081910   0.0116058  -0.0083654   0.0068042   0.0004299
    2   0.0058153  -0.0047780  -0.0010856   0.0009437  -0.0020770  -0.0022708
    3   0.0128856  -0.0022761  -0.0011628  -0.0020914  -0.0112443  -0.0006846
END STEP 9
 ------------------------------------------------------------------------------
                     RIMP2 GRADIENT: Timing summary (seconds)
 ------------------------------------------------------------------------------
     job step          cpu (% of tot)      sys (% of tot)     wall (% of tot)
 ------------------------------------------------------------------------------
  2C2E INTS         0.4399E-01 ( 1.6)   0.0000E+00 ( 0.0)   0.4498E-01 ( 1.7)
  3C2E INTS         0.9699E-01 ( 3.6)   0.0000E+00 ( 0.0)   0.9625E-01 ( 3.6)
  C Matrix          0.1800E-01 ( 0.7)   0.1000E-05 ( 7.7)   0.1786E-01 ( 0.7)
  Gradient I        0.1210E+00 ( 4.5)   0.1000E-05 ( 7.7)   0.1215E+00 ( 4.5)
  Loading (ia|P)    0.1000E-02 ( 0.0)   0.0000E+00 ( 0.0)   0.4113E-03 ( 0.0)
  Loading C         0.6000E-02 ( 0.2)   0.1000E-05 ( 7.7)   0.4405E-02 ( 0.2)
  Making (ia|jb)    0.4100E-01 ( 1.5)   0.0000E+00 ( 0.0)   0.4146E-01 ( 1.5)
  Making t          0.3000E-02 ( 0.1)   0.0000E+00 ( 0.0)   0.4513E-02 ( 0.2)
  Evaluating E      0.3000E-02 ( 0.1)   0.0000E+00 ( 0.0)   0.1528E-02 ( 0.1)
  Making RHFt       0.1000E-02 ( 0.0)   0.0000E+00 ( 0.0)   0.1618E-02 ( 0.1)
  Accumulation      0.2000E-02 ( 0.1)   0.0000E+00 ( 0.0)   0.2095E-02 ( 0.1)
  Making Pca        0.8998E-02 ( 0.3)   0.0000E+00 ( 0.0)   0.8020E-02 ( 0.3)
  Making GiaQ       0.3899E-01 ( 1.4)   0.0000E+00 ( 0.0)   0.3995E-01 ( 1.5)
  Pre-Extract t     0.1000E-02 ( 0.0)   0.0000E+00 ( 0.0)   0.1735E-02 ( 0.1)
  Write t           0.2998E-02 ( 0.1)   0.0000E+00 ( 0.0)   0.2159E-02 ( 0.1)
  Write Giaq        0.0000E+00 ( 0.0)   0.0000E+00 ( 0.0)   0.5469E-03 ( 0.0)
  Read t            0.0000E+00 ( 0.0)   0.0000E+00 ( 0.0)   0.1326E-02 ( 0.0)
  Post-Extract t    0.4997E-02 ( 0.2)   0.0000E+00 ( 0.0)   0.3436E-02 ( 0.1)
  Making Pkj        0.4999E-02 ( 0.2)   0.0000E+00 ( 0.0)   0.4241E-02 ( 0.2)
  Gradient II       0.1700E-01 ( 0.6)   0.0000E+00 ( 0.0)   0.1645E-01 ( 0.6)
  Loading C/GiaQ    0.1000E-02 ( 0.0)   0.0000E+00 ( 0.0)   0.6955E-03 ( 0.0)
  GiaQ Transpose    0.2000E-02 ( 0.1)   0.0000E+00 ( 0.0)   0.2154E-02 ( 0.1)
  Step 7            0.4159E+00 (15.4)   0.0000E+00 ( 0.0)   0.4161E+00 (15.4)
  JobNum=67         0.1100E+00 ( 4.1)   0.0000E+00 ( 0.0)   0.1099E+00 ( 4.1)
  JobNum=167        0.2840E+00 (10.5)   0.0000E+00 ( 0.0)   0.2836E+00 (10.5)
  JobNum=164        0.1700E-01 ( 0.6)   0.0000E+00 ( 0.0)   0.1675E-01 ( 0.6)
  Step 8            0.1000E-02 ( 0.0)   0.0000E+00 ( 0.0)   0.9761E-03 ( 0.0)
  Step 9            0.1985E+01 (73.5)   0.1100E-04 (84.6)   0.1985E+01 (73.5)
  relax_dual_scf    0.7119E+00 (26.4)   0.1000E-05 ( 7.7)   0.7118E+00 (26.4)
  DB Lagrangian     0.2230E+00 ( 8.3)   0.0000E+00 ( 0.0)   0.2232E+00 ( 8.3)
  DB Z-vector       0.4889E+00 (18.1)   0.1000E-05 ( 7.7)   0.4885E+00 (18.1)
  scf_dual_grad     0.1273E+01 (47.1)   0.1000E-04 (76.9)   0.1273E+01 (47.1)
  2e AO-DERIs       0.1262E+01 (46.7)   0.1000E-04 (76.9)   0.1262E+01 (46.7)
 ------------------------------------------------------------------------------
   Grand Totals     0.2701E+01          0.1300E-04          0.2701E+01
 ------------------------------------------------------------------------------

Symmetry turned back on
cdman timing      0.001 seconds
Symmetry turned off temporarily
 Analysis of SCF Wavefunction
 
 --------------------------------------------------------------
                    Orbital Energies (a.u.)
 --------------------------------------------------------------
 
 Alpha MOs
 -- Occupied --
-20.536 -11.289 -11.218 -11.207  -1.352  -1.057  -0.919  -0.815
 -0.691  -0.625  -0.598  -0.586  -0.535  -0.509  -0.499  -0.472
 -0.440
 -- Virtual --
  0.212   0.231   0.276   0.292   0.313   0.320   0.335   0.337
  0.398   0.407   0.433   0.723   0.735   0.744   0.775   0.808
  0.916   0.923   0.937   1.000   1.064   1.124   1.152   1.164
  1.171   1.179   1.200   1.210   1.239   1.297   1.324   1.451
  1.601   1.686   1.707   1.799   1.865   1.930   2.066   2.130
  2.214   2.236   2.271   2.312   2.393   2.513   2.578   2.611
  2.659   2.721   2.790   2.810   2.919   3.079   3.220   4.166
  4.576   4.717   4.893
 --------------------------------------------------------------
 
          Ground-State Mulliken Net Atomic Charges

     Atom                 Charge (a.u.)
  ----------------------------------------
      1 C                    -0.466224
      2 C                    -0.301335
      3 H                     0.148209
      4 H                     0.158262
      5 H                     0.156831
      6 H                     0.142466
      7 C                    -0.040496
      8 H                     0.162526
      9 H                     0.137795
     10 H                     0.159591
     11 O                    -0.666647
     12 H                     0.409022
  ----------------------------------------
  Sum of atomic charges =    -0.000000

 -----------------------------------------------------------------
                    Cartesian Multipole Moments
 -----------------------------------------------------------------
    Charge (ESU x 10^10)
                -0.0000
    Dipole Moment (Debye)
         X       1.0068      Y       0.2416      Z       1.4314
       Tot       1.7666
    Quadrupole Moments (Debye-Ang)
        XX     -28.9755     XY      -1.2458     YY     -26.0742
        XZ      -3.6346     YZ       0.9928     ZZ     -25.5684
    Octopole Moments (Debye-Ang^2)
       XXX      -5.1902    XXY       5.4259    XYY      -3.4452
       YYY       1.4905    XXZ       7.0541    XYZ      -2.0424
       YYZ       0.2077    XZZ      -3.7717    YZZ       0.2329
       ZZZ       0.2525
    Hexadecapole Moments (Debye-Ang^3)
      XXXX    -375.1907   XXXY      -9.3050   XXYY     -71.4324
      XYYY      -2.2225   YYYY     -76.0530   XXXZ     -19.9622
      XXYZ       3.6980   XYYZ      -2.1066   YYYZ       1.0928
      XXZZ     -67.3153   XYZZ      -2.1300   YYZZ     -18.5983
      XZZZ      -4.6386   YZZZ       0.5272   ZZZZ     -47.9313
 -----------------------------------------------------------------
 DrvMan is completing analytic gradient of the MP2 energy
 Gradient time:  CPU 0.00 s  wall 0.00 s
 ------------------------------------------------------------------------------
                     drvman        : Timing summary (seconds)
 ------------------------------------------------------------------------------
     job step          cpu (% of tot)      sys (% of tot)     wall (% of tot)
 ------------------------------------------------------------------------------
 ------------------------------------------------------------------------------
   Grand Totals     0.0000E+00          0.0000E+00          0.1502E-04
 ------------------------------------------------------------------------------
 Geometry Optimization Parameters
   NAtoms,    NIC,     NZ,  NCons,   NDum,   NFix, NCnnct, MaxDiis
       12      75       0       2       0       0       0       0

 Cartesian Hessian Update
 Hessian Updated using BFGS Update


** CONSTRAINED OPTIMIZATION IN DELOCALIZED INTERNAL COORDINATES **
   Searching for a Minimum

   Optimization Cycle:   2

                       Coordinates (Angstroms)
     ATOM                X               Y               Z
      1  C         1.8973416923   -0.1329263062   -0.0057535618
      2  C         0.5139919598    0.5251591130    0.0526131936
      3  H         2.0821572508   -0.7386451266    0.8839213103
      4  H         2.6872103318    0.6179401188   -0.0664893903
      5  H         1.9839840103   -0.7789944228   -0.8815699268
      6  H         0.3686596469    1.2184721079    0.8862708154
      7  C        -0.6131113468   -0.5008002607    0.0778035747
      8  H         0.4431543540    1.0922866701   -0.8775893906
      9  H        -0.5238523499   -1.0720946293    1.0104023702
     10  H        -0.5274303364   -1.2100668420   -0.7481276225
     11  O        -1.8971379138    0.0767838715   -0.2009658905
     12  H        -2.1686876859    0.5638686354    0.6079742296
   Point Group: c1    Number of degrees of freedom:    30


   Energy is   -193.664908124

              Constraints and their Current Values
                                        Value     Constraint
   Dihedral:        1   2   7  11     -165.459     -165.000
   Dihedral:        2   7  11  12      -75.117      -75.000
 GETINT wrote B to file, NVib is           30
 Hessian Updated using BFGS Update

   Using Lagrange Multiplier Algorithm


 30 Hessian modes will be used to form the next step
  Hessian Eigenvalues:
    -0.977769   -0.942827    0.045001    0.056021    0.069531    0.077805
     0.083657    0.084529    0.085227    0.099566    0.119762    0.124284
     0.136942    0.157374    0.164984    0.219164    0.227596    0.282559
     0.295947    0.299848    0.321926    0.324560    0.324661    0.324976
     0.325436    0.325639    0.416799    0.490027    1.022741    1.067836

 Minimum Search - Taking P-RFO Step
 Searching for Lamda that Maximizes Along the Constraint modes Only
 Value Taken    Lamda =   0.00062800
 Searching for Lamda that Minimizes Along All other modes
 Value Taken    Lamda =  -0.00408645
 Step Taken.  Stepsize is  0.187949

                             Maximum     Tolerance    Cnvgd?
         Gradient           0.026455      0.000300      NO
         Displacement       0.118828      0.001200      NO
         Energy change     -0.000333      0.000001      NO


 New Cartesian Coordinates Obtained by Inverse Iteration

 Displacement from previous Coordinates is:  0.209251
 ----------------------------------------------------------------
             Standard Nuclear Orientation (Angstroms)
    I     Atom           X                Y                Z
 ----------------------------------------------------------------
    1      C       1.9015116536    -0.1328590281    -0.0041676029
    2      C       0.5190444750     0.5235339839     0.0548223638
    3      H       2.1104277975    -0.7415135535     0.8721582177
    4      H       2.6898525448     0.6092086975    -0.0766522795
    5      H       1.9692098348    -0.7754273310    -0.8754007678
    6      H       0.4087067682     1.2170629165     0.8843282569
    7      C      -0.6050157161    -0.5013980181     0.0832733815
    8      H       0.3983267853     1.0978804548    -0.8603652502
    9      H      -0.5781585056    -1.0742178738     1.0117733589
   10      H      -0.4744465024    -1.2032254045    -0.7348234480
   11      O      -1.9059399228     0.0734924862    -0.2077575171
   12      H      -2.1872395994     0.5684455991     0.5913009979
 ----------------------------------------------------------------
 Molecular Point Group                 C1    NOp =  1
 Largest Abelian Subgroup              C1    NOp =  1
 Nuclear Repulsion Energy =   129.7024092754 hartrees
 There are       17 alpha and       17 beta electrons
 JobOver = FALSE
 Applying Cartesian multipole field
    Component          Value
    ---------          -----
     (2,0,0)        1.00000E-11
     (0,2,0)        2.00000E-10
     (0,0,2)       -3.00000E-10
 Nucleus-field energy     =     0.0000000044 hartrees
 Requested basis set is r64G
 There are 16 shells and 28 basis functions
 Requested basis set is 6-31G(d)
 There are 32 shells and 76 basis functions
 Requested basis set is rimp2-VDZ
 There are 112 shells and 328 basis functions
 Job number = 2, Threshold = 1.00E-11
Integral type ranges set in mkLRange.C for JobNum: 2  <1-12|1-12>
Symmetry turned off temporarily
Total number of integrals generated =            5039
Symmetry turned back on
 A cutoff of  1.0D-11 yielded    133 shell pairs
 There are       427 function pairs
 Job number = 11, Threshold = 1.00E-11
Integral type ranges set in mkLRange.C for JobNum: 11  <1-6|13-13>
Total number of integrals generated =            5124
 Smallest overlap matrix eigenvalue = 2.82E-01
 Multipole matrices computed through 2nd order
 Guess MOs from SCF MO coefficient file
Reading MOs from coefficient file
Reading MOs from coefficient file
 A restricted Hartree-Fock SCF calculation will be
 performed using Pulay DIIS extrapolation
 SCF converges when DIIS error is below 1.0E-08
Geometry optimization detected.  Setting ReadMinima to 0
Setting SaveMinima to 0
Finding J and K together
 Job number = 22, Threshold = 1.00E-11
Integral type ranges set in mkLRange.C for JobNum: 22  <1-6|1-6>
Storing 1989.74% of integrals
Total number of integrals generated =           97948
Fock build time:  0.08 s (CPU) 0.08 s (wall)
DIIS Errors:  Max 1.95E-02 RMS 3.41E-03

Current DIIS subspace size = 1
REM_GRID_RESTART_DIIS = 0

 ---------------------------------------
  Cycle       Energy         DIIS Error
 ---------------------------------------
    1    -192.9852481500      3.41E-03  00000
Finding J and K together
 Job number = 22, Threshold = 1.00E-11
Integral type ranges set in mkLRange.C for JobNum: 22  <1-6|1-6>
Storing 1989.74% of integrals
Reusing in-core integrals buffer for job 22
Fock build time:  0.01 s (CPU) 0.01 s (wall)
DIIS Errors:  Max 3.72E-03 RMS 5.58E-04

Current DIIS subspace size = 2
REM_GRID_RESTART_DIIS = 0

    2    -192.9678058233      5.58E-04  00000
Finding J and K together
 Job number = 22, Threshold = 1.00E-11
Integral type ranges set in mkLRange.C for JobNum: 22  <1-6|1-6>
Storing 1989.74% of integrals
Reusing in-core integrals buffer for job 22
Fock build time:  0.01 s (CPU) 0.01 s (wall)
DIIS Errors:  Max 1.24E-03 RMS 1.64E-04

Current DIIS subspace size = 3
REM_GRID_RESTART_DIIS = 0

    3    -192.9678606867      1.64E-04  00000
Finding J and K together
 Job number = 22, Threshold = 1.00E-11
Integral type ranges set in mkLRange.C for JobNum: 22  <1-6|1-6>
Storing 1989.74% of integrals
Reusing in-core integrals buffer for job 22
Fock build time:  0.01 s (CPU) 0.01 s (wall)
DIIS Errors:  Max 3.96E-04 RMS 4.69E-05

Current DIIS subspace size = 4
REM_GRID_RESTART_DIIS = 0

    4    -192.9678659835      4.69E-05  00000
Finding J and K together
 Job number = 22, Threshold = 1.00E-11
Integral type ranges set in mkLRange.C for JobNum: 22  <1-6|1-6>
Storing 1989.74% of integrals
Reusing in-core integrals buffer for job 22
Fock build time:  0.01 s (CPU) 0.01 s (wall)
DIIS Errors:  Max 5.30E-05 RMS 6.69E-06

Current DIIS subspace size = 5
REM_GRID_RESTART_DIIS = 0

    5    -192.9678665752      6.69E-06  00000
Finding J and K together
 Job number = 22, Threshold = 1.00E-11
Integral type ranges set in mkLRange.C for JobNum: 22  <1-6|1-6>
Storing 1989.74% of integrals
Reusing in-core integrals buffer for job 22
Fock build time:  0.01 s (CPU) 0.01 s (wall)
DIIS Errors:  Max 1.27E-05 RMS 1.89E-06

Current DIIS subspace size = 6
REM_GRID_RESTART_DIIS = 0

    6    -192.9678665895      1.89E-06  00000
Finding J and K together
 Job number = 22, Threshold = 1.00E-11
Integral type ranges set in mkLRange.C for JobNum: 22  <1-6|1-6>
Storing 1989.74% of integrals
Reusing in-core integrals buffer for job 22
Fock build time:  0.01 s (CPU) 0.01 s (wall)
DIIS Errors:  Max 3.11E-06 RMS 3.84E-07

Current DIIS subspace size = 7
REM_GRID_RESTART_DIIS = 0

    7    -192.9678665906      3.84E-07  00000
Finding J and K together
 Job number = 22, Threshold = 1.00E-11
Integral type ranges set in mkLRange.C for JobNum: 22  <1-6|1-6>
Storing 1989.74% of integrals
Reusing in-core integrals buffer for job 22
Fock build time:  0.01 s (CPU) 0.01 s (wall)
DIIS Errors:  Max 6.14E-07 RMS 8.56E-08

Current DIIS subspace size = 8
REM_GRID_RESTART_DIIS = 0

    8    -192.9678665907      8.56E-08  00000
Finding J and K together
 Job number = 22, Threshold = 1.00E-11
Integral type ranges set in mkLRange.C for JobNum: 22  <1-6|1-6>
Storing 1989.74% of integrals
Reusing in-core integrals buffer for job 22
Fock build time:  0.01 s (CPU) 0.01 s (wall)
DIIS Errors:  Max 1.17E-07 RMS 1.50E-08
 Singularity in Pulay DIIS matrix

Current DIIS subspace size = 9
REM_GRID_RESTART_DIIS = 0

NextCycle: DoReset = 1
    9    -192.9678665907      1.50E-08  00000
Finding J and K together
 Job number = 22, Threshold = 1.00E-11
Integral type ranges set in mkLRange.C for JobNum: 22  <1-6|1-6>
Storing 1989.74% of integrals
Reusing in-core integrals buffer for job 22
Fock build time:  0.01 s (CPU) 0.01 s (wall)
DIIS Errors:  Max 5.67E-08 RMS 6.38E-09

Current DIIS subspace size = 2
REM_GRID_RESTART_DIIS = 0

   10    -192.9678665907      6.38E-09  00000 Convergence criterion met
 ---------------------------------------
 SCF time:  CPU 0.18 s  wall 0.18 s
 SCF   energy in the small basis set = -192.9678665907
 Total energy in the small basis set = -192.9678665907
 Job number = 2, Threshold = 1.00E-11
Integral type ranges set in mkLRange.C for JobNum: 2  <1-27|1-27>
Symmetry turned off temporarily
Total number of integrals generated =           47713
Symmetry turned back on
 A cutoff of  1.0D-11 yielded    512 shell pairs
 There are      2991 function pairs
 OvProjection to generate starting density matrix.
  NAlpha  = 17
  NBeta   = 17
  NBasis1 = 28
  NBasis2 = 76
  Job number = 11, Threshold = 1.00E-11
Integral type ranges set in mkLRange.C for JobNum: 11  <1-21|28-28>
Total number of integrals generated =           35892
 Smallest overlap matrix eigenvalue = 4.55E-03
 Multipole matrices computed through 2nd order
Using Overlap Pojector (with SVD) for new coefficients.
 A restricted Hartree-Fock SCF calculation will be
 performed using Pulay DIIS extrapolation
 SCF converges when DIIS error is below 1.0E-08
Geometry optimization detected.  Setting ReadMinima to 0
Setting SaveMinima to 0
Labelling shells for dual-basis integrals.
Using Integral Screening
Finding J and K together
 ML is being used
 Job number = 22, Threshold = 1.00E-11
Integral type ranges set in mkLRange.C for JobNum: 22  <1-21|1-21>
Total number of integrals generated =         3934137
Fock build time:  0.22 s (CPU) 0.22 s (wall)
DIIS Errors:  Max 2.12E-01 RMS 1.59E-02

Current DIIS subspace size = 1
REM_GRID_RESTART_DIIS = 0

 ETot:    -192.967866591409
 dual-basis energy correction:      -0.118841197444
 ---------------------------------------
  Cycle       Energy         DIIS Error
 ---------------------------------------
    1    -193.0867077889      1.59E-02  00000    Including correction
Skipping free of jCA and jEA for dbscf
 SCF time:  CPU 0.23 s  wall 0.23 s
Symmetry turned off temporarily
-------------------------------------------------------------------------
-------------------------------------------------------------------------

Entering the High Performance RI-MP2 Gradient Code Version 1.2.
Written by Robert A. DiStasio Jr. (03/05-08/05)
Now performing a force calculation at the RI-MP2 level of theory.

-------------------------------------------------------------------------
-------------------------------------------------------------------------
BEGIN STEP 1: Construction and Storage of the (P|Q)^-1 Matrix.
Forming the (P|Q)^-1 matrix.
 Entering AOints
 Job number = 66, Threshold = 1.00E-11
Integral type ranges set in mkLRange.C for JobNum: 66  <22-27|22-27>
Storing 40.63% of integrals
Total number of integrals generated =           58618
END STEP 1
BEGIN STEP 2: Construction and Storage of the Three-Centered Integrals (ia|P).
Forming the three-centered integrals.
 NBasAux in rimp2.F =          328
 
 Entering first-index batching code with I1Strt =    5 batch size =   13
 Job number = 65, Threshold = 1.00E-11
Integral type ranges set in mkLRange.C for JobNum: 65  <1-21|22-27>
Storing 40.63% of integrals
Total number of integrals generated =         1016940
END STEP 2
BEGIN STEP 3: Construction and Storage of the C Matrix.
Forming the C Matrix in the alpha subspace.
END STEP 3
BEGIN STEP 4: Gradient Builder I.
Dynamically calculated OBS = 13.
Dynamically calculated VBS = 59.
The Number of Occupied Orbitals = 13.
The Number of Virtual Orbitals = 59.
Dynamically calculated OBS = 13.
Dynamically calculated VBS = 59.
The Number of Occupied Batches is 1.
The Number of Virtual Batches is 1.

Components of the RI-MP2 Correlation Energy:
RI-MP2 ENERGY (aa|aa)   	=              -0.0707585335 au
RI-MP2 ENERGY (aa|bb)   	=              -0.2194104377 au
RI-MP2 ENERGY (bb|aa)   	=              -0.2194104377 au
RI-MP2 ENERGY (bb|bb)   	=              -0.0707585335 au
RI-MP2 SINGLES ENERGY           =              -0.0000000000 au

RI-MP2 CORRELATION ENERGY	=              -0.5803379426 au
RI-MP2 TOTAL ENERGY		=            -193.6670457314 au
END STEP 4
BEGIN STEP 5: Gradient Builder II.
END STEP 5
BEGIN STEP 6: GiaQ Transposition.

Entering the 'Three Index Transposition Function'

The batch size chosen was: 16
The number of fast-indexed elements: 59
The number of medium-indexed elements: 328
The number of slow-indexed elements: 13
The number of batches will be: 1
BS = 13
END STEP 6
BEGIN STEP 7: Gradient Builder III.
 Job number = 67, Threshold = 1.00E-11
Integral type ranges set in mkLRange.C for JobNum: 67  <1-21|22-27>
Storing 40.63% of integrals
 Job number = 167, Threshold = 1.00E-11
Integral type ranges set in mkLRange.C for JobNum: 67  <1-21|22-27>
 Job number = 164, Threshold = 1.00E-11
Integral type ranges set in mkLRange.C for JobNum: 64  <22-27|22-27>
Total number of integrals generated =           58618
END STEP 7
BEGIN STEP 8.
Forming the P(2) and W(2) Matrices in the alpha subspace.
END STEP 8
BEGIN STEP 9: Lagrangian Assembly and Solution of the Z-vector equations.
 Using LS Screening for RHS ints
Finding J and K together
 ML is being used
 Job number = 22, Threshold = 1.00E-11
Integral type ranges set in mkLRange.C for JobNum: 22  <1-21|1-21>
Total number of integrals generated =         3888191
 Here (after Lag build) we project to new basis:           28  functions
DualProjection:
 nbf1 = 76
 nbf2 = 28
In big_to_small.C, switching to the small basis.

***************************************************************
For dual-basis calculation, we remember the OV space variables:
ISpin = 0
MaxSz = 187	MaxSpc = 187
NOa   = 17	NOb    = 17	NVa  = 11	NVb = 11
NOV   = 374	NOVa   = 187	NOVb = 187
NAct  = 28
Frozen occupieds = 0
Frozen virtuals  = 0
***************************************************************
 Top of makaov_db.F. Look here for RHS if needed.
 ---------------------------------------------------
 Iter    Rts Conv    Rts Left    Ttl Dev     Max Dev
 ---------------------------------------------------
 Job number = 30, Threshold = 1.00E-11
Integral type ranges set in mkLRange.C for JobNum: 30  <1-6|1-6>
Storing 1989.74% of integrals
Total number of integrals generated =           92824
   1         0           1      0.000455    0.000455
 Job number = 30, Threshold = 1.00E-11
Integral type ranges set in mkLRange.C for JobNum: 30  <1-6|1-6>
Storing 1989.74% of integrals
   2         0           1      0.000053    0.000053
 Job number = 30, Threshold = 1.00E-11
Integral type ranges set in mkLRange.C for JobNum: 30  <1-6|1-6>
Storing 1989.74% of integrals
   3         0           1      0.000014    0.000014
 Job number = 30, Threshold = 1.00E-11
Integral type ranges set in mkLRange.C for JobNum: 30  <1-6|1-6>
Storing 1989.74% of integrals
   4         0           1      0.000003    0.000003
 Job number = 30, Threshold = 1.00E-11
Integral type ranges set in mkLRange.C for JobNum: 30  <1-6|1-6>
Storing 1989.74% of integrals
   5         1           0      0.000000    0.000000    Roots Converged
 ---------------------------------------------------
DualProjection:
 nbf1 = 28
 nbf2 = 76
Finding J and K together
 Job number = 22, Threshold = 1.00E-11
Integral type ranges set in mkLRange.C for JobNum: 22  <1-6|1-6>
Storing 1989.74% of integrals
DualProjection:
 nbf1 = 28
 nbf2 = 76
In small_to_big.C, switching to the big basis.

***************************************************************
For dual-basis calculation, we remember the OV space variables:
ISpin = 0
MaxSz = 1003	MaxSpc = 1003
NOa   = 17	NOb    = 17	NVa  = 59	NVb = 59
NOV   = 2006	NOVa   = 1003	NOVb = 1003
NAct  = 76
Frozen occupieds = 0
Frozen virtuals  = 0
***************************************************************
rps debug: development ON
DualProjection:
 nbf1 = 28
 nbf2 = 76
 Job number = 111, Threshold = 1.00E-11
Integral type ranges set in mkLRange.C for JobNum: 11  <1-21|28-28>
Total number of integrals generated =           35892
 Job number = 127, Threshold = 1.00E-11
Integral type ranges set in mkLRange.C for JobNum: 27  <1-21|1-21>
Total number of integrals generated =         3665358
 Gradient of the Dual-Basis Energy:
            1           2           3           4           5           6
    1   0.0042185  -0.0000391   0.0007153  -0.0022066  -0.0001624  -0.0031271
    2  -0.0016987   0.0037737   0.0020791  -0.0037337   0.0026610  -0.0015555
    3  -0.0071920   0.0098832  -0.0033332   0.0004881   0.0039254  -0.0047224
            7           8           9          10          11          12
    1  -0.0011752   0.0029941   0.0054298  -0.0030040  -0.0026196  -0.0010239
    2  -0.0007235  -0.0043901  -0.0003796   0.0036226   0.0022518  -0.0019071
    3   0.0088800   0.0016248  -0.0036170   0.0015323  -0.0049465  -0.0025227
END STEP 9
 ------------------------------------------------------------------------------
                     RIMP2 GRADIENT: Timing summary (seconds)
 ------------------------------------------------------------------------------
     job step          cpu (% of tot)      sys (% of tot)     wall (% of tot)
 ------------------------------------------------------------------------------
  2C2E INTS         0.4499E-01 ( 1.7)   0.0000E+00 ( 0.0)   0.4499E-01 ( 1.7)
  3C2E INTS         0.9499E-01 ( 3.5)   0.1000E-05 ( 8.3)   0.9538E-01 ( 3.6)
  C Matrix          0.1800E-01 ( 0.7)   0.0000E+00 ( 0.0)   0.1787E-01 ( 0.7)
  Gradient I        0.1210E+00 ( 4.5)   0.1000E-05 ( 8.3)   0.1211E+00 ( 4.5)
  Loading (ia|P)    0.0000E+00 ( 0.0)   0.0000E+00 ( 0.0)   0.4077E-03 ( 0.0)
  Loading C         0.3998E-02 ( 0.1)   0.0000E+00 ( 0.0)   0.4394E-02 ( 0.2)
  Making (ia|jb)    0.4299E-01 ( 1.6)   0.0000E+00 ( 0.0)   0.4130E-01 ( 1.5)
  Making t          0.4000E-02 ( 0.1)   0.0000E+00 ( 0.0)   0.4498E-02 ( 0.2)
  Evaluating E      0.0000E+00 ( 0.0)   0.0000E+00 ( 0.0)   0.1552E-02 ( 0.1)
  Making RHFt       0.0000E+00 ( 0.0)   0.0000E+00 ( 0.0)   0.1517E-02 ( 0.1)
  Accumulation      0.3000E-02 ( 0.1)   0.0000E+00 ( 0.0)   0.2105E-02 ( 0.1)
  Making Pca        0.8999E-02 ( 0.3)   0.0000E+00 ( 0.0)   0.8004E-02 ( 0.3)
  Making GiaQ       0.4099E-01 ( 1.5)   0.0000E+00 ( 0.0)   0.3993E-01 ( 1.5)
  Pre-Extract t     0.1000E-02 ( 0.0)   0.0000E+00 ( 0.0)   0.1743E-02 ( 0.1)
  Write t           0.2000E-02 ( 0.1)   0.0000E+00 ( 0.0)   0.2134E-02 ( 0.1)
  Write Giaq        0.0000E+00 ( 0.0)   0.0000E+00 ( 0.0)   0.5484E-03 ( 0.0)
  Read t            0.2000E-02 ( 0.1)   0.1000E-05 ( 8.3)   0.1340E-02 ( 0.0)
  Post-Extract t    0.3999E-02 ( 0.1)   0.0000E+00 ( 0.0)   0.3438E-02 ( 0.1)
  Making Pkj        0.4998E-02 ( 0.2)   0.0000E+00 ( 0.0)   0.4176E-02 ( 0.2)
  Gradient II       0.1700E-01 ( 0.6)   0.0000E+00 ( 0.0)   0.1646E-01 ( 0.6)
  Loading C/GiaQ    0.9990E-03 ( 0.0)   0.0000E+00 ( 0.0)   0.7095E-03 ( 0.0)
  GiaQ Transpose    0.1999E-02 ( 0.1)   0.0000E+00 ( 0.0)   0.2099E-02 ( 0.1)
  Step 7            0.4159E+00 (15.5)   0.1000E-05 ( 8.3)   0.4161E+00 (15.5)
  JobNum=67         0.1100E+00 ( 4.1)   0.1000E-05 ( 8.3)   0.1100E+00 ( 4.1)
  JobNum=167        0.2830E+00 (10.5)   0.0000E+00 ( 0.0)   0.2834E+00 (10.6)
  JobNum=164        0.1700E-01 ( 0.6)   0.0000E+00 ( 0.0)   0.1678E-01 ( 0.6)
  Step 8            0.1000E-02 ( 0.0)   0.0000E+00 ( 0.0)   0.9720E-03 ( 0.0)
  Step 9            0.1970E+01 (73.4)   0.9000E-05 (75.0)   0.1970E+01 (73.4)
  relax_dual_scf    0.7179E+00 (26.7)   0.0000E+00 ( 0.0)   0.7180E+00 (26.7)
  DB Lagrangian     0.2220E+00 ( 8.3)   0.0000E+00 ( 0.0)   0.2216E+00 ( 8.3)
  DB Z-vector       0.4959E+00 (18.5)   0.0000E+00 ( 0.0)   0.4964E+00 (18.5)
  scf_dual_grad     0.1252E+01 (46.6)   0.9000E-05 (75.0)   0.1252E+01 (46.6)
  2e AO-DERIs       0.1242E+01 (46.3)   0.9000E-05 (75.0)   0.1242E+01 (46.2)
 ------------------------------------------------------------------------------
   Grand Totals     0.2685E+01          0.1200E-04          0.2685E+01
 ------------------------------------------------------------------------------

Symmetry turned back on
cdman timing      0.001 seconds
Symmetry turned off temporarily
 Analysis of SCF Wavefunction
 
 --------------------------------------------------------------
                    Orbital Energies (a.u.)
 --------------------------------------------------------------
 
 Alpha MOs
 -- Occupied --
-20.532 -11.290 -11.220 -11.208  -1.344  -1.060  -0.923  -0.819
 -0.687  -0.628  -0.596  -0.586  -0.538  -0.506  -0.502  -0.475
 -0.443
 -- Virtual --
  0.213   0.231   0.278   0.293   0.313   0.320   0.335   0.338
  0.397   0.405   0.430   0.722   0.732   0.740   0.772   0.805
  0.918   0.926   0.936   0.997   1.067   1.126   1.157   1.168
  1.174   1.183   1.202   1.214   1.245   1.295   1.324   1.449
  1.608   1.673   1.707   1.808   1.867   1.927   2.067   2.126
  2.217   2.238   2.273   2.299   2.399   2.501   2.580   2.610
  2.670   2.726   2.777   2.808   2.917   3.073   3.214   4.161
  4.579   4.719   4.894
 --------------------------------------------------------------
 
          Ground-State Mulliken Net Atomic Charges

     Atom                 Charge (a.u.)
  ----------------------------------------
      1 C                    -0.468750
      2 C                    -0.305361
      3 H                     0.151040
      4 H                     0.159660
      5 H                     0.156716
      6 H                     0.144146
      7 C                    -0.039819
      8 H                     0.165628
      9 H                     0.140911
     10 H                     0.160470
     11 O                    -0.674269
     12 H                     0.409626
  ----------------------------------------
  Sum of atomic charges =     0.000000

 -----------------------------------------------------------------
                    Cartesian Multipole Moments
 -----------------------------------------------------------------
    Charge (ESU x 10^10)
                 0.0000
    Dipole Moment (Debye)
         X       1.0682      Y       0.2454      Z       1.4449
       Tot       1.8136
    Quadrupole Moments (Debye-Ang)
        XX     -28.9185     XY      -1.3310     YY     -25.9623
        XZ      -3.6182     YZ       0.9225     ZZ     -25.6282
    Octopole Moments (Debye-Ang^2)
       XXX      -4.9477    XXY       5.5558    XYY      -3.4410
       YYY       1.5819    XXZ       7.4765    XYZ      -1.9383
       YYZ       0.2464    XZZ      -3.6981    YZZ       0.2175
       ZZZ       0.2705
    Hexadecapole Moments (Debye-Ang^3)
      XXXX    -375.5098   XXXY      -9.9809   XXYY     -71.5630
      XYYY      -2.2215   YYYY     -75.4618   XXXZ     -20.0684
      XXYZ       3.4963   XYYZ      -2.1914   YYYZ       1.0162
      XXZZ     -67.7704   XYZZ      -2.0328   YYZZ     -18.4656
      XZZZ      -4.8354   YZZZ       0.5136   ZZZZ     -47.5944
 -----------------------------------------------------------------
 DrvMan is completing analytic gradient of the MP2 energy
 Gradient time:  CPU 0.00 s  wall 0.00 s
 ------------------------------------------------------------------------------
                     drvman        : Timing summary (seconds)
 ------------------------------------------------------------------------------
     job step          cpu (% of tot)      sys (% of tot)     wall (% of tot)
 ------------------------------------------------------------------------------
 ------------------------------------------------------------------------------
   Grand Totals     0.0000E+00          0.0000E+00          0.1502E-04
 ------------------------------------------------------------------------------
 Geometry Optimization Parameters
   NAtoms,    NIC,     NZ,  NCons,   NDum,   NFix, NCnnct, MaxDiis
       12      75       0       2       0       0       0       0

 Cartesian Hessian Update
 Hessian Updated using BFGS Update


** CONSTRAINED OPTIMIZATION IN DELOCALIZED INTERNAL COORDINATES **
   Searching for a Minimum

   Optimization Cycle:   3

                       Coordinates (Angstroms)
     ATOM                X               Y               Z
      1  C         1.9015116536   -0.1328590281   -0.0041676029
      2  C         0.5190444750    0.5235339839    0.0548223638
      3  H         2.1104277975   -0.7415135535    0.8721582177
      4  H         2.6898525448    0.6092086975   -0.0766522795
      5  H         1.9692098348   -0.7754273310   -0.8754007678
      6  H         0.4087067682    1.2170629165    0.8843282569
      7  C        -0.6050157161   -0.5013980181    0.0832733815
      8  H         0.3983267853    1.0978804548   -0.8603652502
      9  H        -0.5781585056   -1.0742178738    1.0117733589
     10  H        -0.4744465024   -1.2032254045   -0.7348234480
     11  O        -1.9059399228    0.0734924862   -0.2077575171
     12  H        -2.1872395994    0.5684455991    0.5913009979
   Point Group: c1    Number of degrees of freedom:    30


   Energy is   -193.667045731

              Constraints and their Current Values
                                        Value     Constraint
   Dihedral:        1   2   7  11     -165.000     -165.000
   Dihedral:        2   7  11  12      -75.000      -75.000
 GETINT wrote B to file, NVib is           30
 Hessian Updated using BFGS Update

   Using Lagrange Multiplier Algorithm


 29 Hessian modes will be used to form the next step
  Hessian Eigenvalues:
    -0.967497    0.042929    0.045082    0.069728    0.078381    0.083606
     0.084446    0.084840    0.101694    0.108252    0.124814    0.131173
     0.159462    0.160067    0.176490    0.218707    0.220263    0.293468
     0.297801    0.319235    0.322877    0.324561    0.324711    0.324970
     0.325460    0.338854    0.431310    0.488207    1.036194

 Minimum Search - Taking P-RFO Step
 Searching for Lamda that Maximizes Along the Constraint modes Only
 Value Taken    Lamda =   0.00001530
 Searching for Lamda that Minimizes Along All other modes
 Value Taken    Lamda =  -0.00175823
 Step Taken.  Stepsize is  0.154584

                             Maximum     Tolerance    Cnvgd?
         Gradient           0.007171      0.000300      NO
[...]
Dynamically calculated VBS = 59.
The Number of Occupied Batches is 1.
The Number of Virtual Batches is 1.

Components of the RI-MP2 Correlation Energy:
RI-MP2 ENERGY (aa|aa)   	=              -0.0707411938 au
RI-MP2 ENERGY (aa|bb)   	=              -0.2195069544 au
RI-MP2 ENERGY (bb|aa)   	=              -0.2195069544 au
RI-MP2 ENERGY (bb|bb)   	=              -0.0707411938 au
RI-MP2 SINGLES ENERGY           =              -0.0000000000 au

RI-MP2 CORRELATION ENERGY	=              -0.5804962965 au
RI-MP2 TOTAL ENERGY		=            -193.6682696761 au
END STEP 4
BEGIN STEP 5: Gradient Builder II.
END STEP 5
BEGIN STEP 6: GiaQ Transposition.

Entering the 'Three Index Transposition Function'

The batch size chosen was: 16
The number of fast-indexed elements: 59
The number of medium-indexed elements: 328
The number of slow-indexed elements: 13
The number of batches will be: 1
BS = 13
END STEP 6
BEGIN STEP 7: Gradient Builder III.
 Job number = 67, Threshold = 1.00E-11
Integral type ranges set in mkLRange.C for JobNum: 67  <1-21|22-27>
Storing 40.63% of integrals
 Job number = 167, Threshold = 1.00E-11
Integral type ranges set in mkLRange.C for JobNum: 67  <1-21|22-27>
 Job number = 164, Threshold = 1.00E-11
Integral type ranges set in mkLRange.C for JobNum: 64  <22-27|22-27>
Total number of integrals generated =           58618
END STEP 7
BEGIN STEP 8.
Forming the P(2) and W(2) Matrices in the alpha subspace.
END STEP 8
BEGIN STEP 9: Lagrangian Assembly and Solution of the Z-vector equations.
 Using LS Screening for RHS ints
Finding J and K together
 ML is being used
 Job number = 22, Threshold = 1.00E-11
Integral type ranges set in mkLRange.C for JobNum: 22  <1-21|1-21>
Total number of integrals generated =         3892374
 Here (after Lag build) we project to new basis:           28  functions
DualProjection:
 nbf1 = 76
 nbf2 = 28
In big_to_small.C, switching to the small basis.

***************************************************************
For dual-basis calculation, we remember the OV space variables:
ISpin = 0
MaxSz = 187	MaxSpc = 187
NOa   = 17	NOb    = 17	NVa  = 11	NVb = 11
NOV   = 374	NOVa   = 187	NOVb = 187
NAct  = 28
Frozen occupieds = 0
Frozen virtuals  = 0
***************************************************************
 Top of makaov_db.F. Look here for RHS if needed.
 ---------------------------------------------------
 Iter    Rts Conv    Rts Left    Ttl Dev     Max Dev
 ---------------------------------------------------
 Job number = 30, Threshold = 1.00E-11
Integral type ranges set in mkLRange.C for JobNum: 30  <1-6|1-6>
Storing 1989.74% of integrals
Total number of integrals generated =           92824
   1         0           1      0.000455    0.000455
 Job number = 30, Threshold = 1.00E-11
Integral type ranges set in mkLRange.C for JobNum: 30  <1-6|1-6>
Storing 1989.74% of integrals
   2         0           1      0.000054    0.000054
 Job number = 30, Threshold = 1.00E-11
Integral type ranges set in mkLRange.C for JobNum: 30  <1-6|1-6>
Storing 1989.74% of integrals
   3         0           1      0.000014    0.000014
 Job number = 30, Threshold = 1.00E-11
Integral type ranges set in mkLRange.C for JobNum: 30  <1-6|1-6>
Storing 1989.74% of integrals
   4         0           1      0.000003    0.000003
 Job number = 30, Threshold = 1.00E-11
Integral type ranges set in mkLRange.C for JobNum: 30  <1-6|1-6>
Storing 1989.74% of integrals
   5         1           0      0.000000    0.000000    Roots Converged
 ---------------------------------------------------
DualProjection:
 nbf1 = 28
 nbf2 = 76
Finding J and K together
 Job number = 22, Threshold = 1.00E-11
Integral type ranges set in mkLRange.C for JobNum: 22  <1-6|1-6>
Storing 1989.74% of integrals
DualProjection:
 nbf1 = 28
 nbf2 = 76
In small_to_big.C, switching to the big basis.

***************************************************************
For dual-basis calculation, we remember the OV space variables:
ISpin = 0
MaxSz = 1003	MaxSpc = 1003
NOa   = 17	NOb    = 17	NVa  = 59	NVb = 59
NOV   = 2006	NOVa   = 1003	NOVb = 1003
NAct  = 76
Frozen occupieds = 0
Frozen virtuals  = 0
***************************************************************
rps debug: development ON
DualProjection:
 nbf1 = 28
 nbf2 = 76
 Job number = 111, Threshold = 1.00E-11
Integral type ranges set in mkLRange.C for JobNum: 11  <1-21|28-28>
Total number of integrals generated =           35892
 Job number = 127, Threshold = 1.00E-11
Integral type ranges set in mkLRange.C for JobNum: 27  <1-21|1-21>
Total number of integrals generated =         3669607
 Gradient of the Dual-Basis Energy:
            1           2           3           4           5           6
    1  -0.0000893   0.0003253   0.0000379  -0.0000037  -0.0000266  -0.0000457
    2  -0.0000086  -0.0003212   0.0000601   0.0000054  -0.0000521  -0.0000544
    3  -0.0018921   0.0010727   0.0000320  -0.0000532   0.0000323   0.0000462
            7           8           9          10          11          12
    1  -0.0006452   0.0000389   0.0000114  -0.0000113   0.0009476  -0.0005392
    2   0.0005349   0.0000726   0.0000224  -0.0000100   0.0007219  -0.0009710
    3   0.0030126   0.0000502   0.0000091   0.0000071  -0.0027377   0.0004207
END STEP 9
 ------------------------------------------------------------------------------
                     RIMP2 GRADIENT: Timing summary (seconds)
 ------------------------------------------------------------------------------
     job step          cpu (% of tot)      sys (% of tot)     wall (% of tot)
 ------------------------------------------------------------------------------
  2C2E INTS         0.4399E-01 ( 1.6)   0.0000E+00 ( 0.0)   0.4485E-01 ( 1.6)
  3C2E INTS         0.9599E-01 ( 3.5)   0.2000E-05 (16.7)   0.9567E-01 ( 3.5)
  C Matrix          0.1800E-01 ( 0.7)   0.0000E+00 ( 0.0)   0.1785E-01 ( 0.7)
  Gradient I        0.1210E+00 ( 4.4)   0.0000E+00 ( 0.0)   0.1213E+00 ( 4.4)
  Loading (ia|P)    0.1000E-02 ( 0.0)   0.0000E+00 ( 0.0)   0.4127E-03 ( 0.0)
  Loading C         0.0000E+00 ( 0.0)   0.0000E+00 ( 0.0)   0.4444E-02 ( 0.2)
  Making (ia|jb)    0.4400E-01 ( 1.6)   0.0000E+00 ( 0.0)   0.4144E-01 ( 1.5)
  Making t          0.5999E-02 ( 0.2)   0.0000E+00 ( 0.0)   0.4485E-02 ( 0.2)
  Evaluating E      0.1000E-02 ( 0.0)   0.0000E+00 ( 0.0)   0.1570E-02 ( 0.1)
  Making RHFt       0.0000E+00 ( 0.0)   0.0000E+00 ( 0.0)   0.1637E-02 ( 0.1)
  Accumulation      0.1000E-02 ( 0.0)   0.0000E+00 ( 0.0)   0.2091E-02 ( 0.1)
  Making Pca        0.1200E-01 ( 0.4)   0.0000E+00 ( 0.0)   0.7989E-02 ( 0.3)
  Making GiaQ       0.3899E-01 ( 1.4)   0.0000E+00 ( 0.0)   0.3987E-01 ( 1.5)
  Pre-Extract t     0.2000E-02 ( 0.1)   0.0000E+00 ( 0.0)   0.1750E-02 ( 0.1)
  Write t           0.1999E-02 ( 0.1)   0.0000E+00 ( 0.0)   0.2112E-02 ( 0.1)
  Write Giaq        0.1000E-02 ( 0.0)   0.0000E+00 ( 0.0)   0.5419E-03 ( 0.0)
  Read t            0.1000E-02 ( 0.0)   0.0000E+00 ( 0.0)   0.1339E-02 ( 0.0)
  Post-Extract t    0.9990E-03 ( 0.0)   0.0000E+00 ( 0.0)   0.3386E-02 ( 0.1)
  Making Pkj        0.3999E-02 ( 0.1)   0.0000E+00 ( 0.0)   0.4173E-02 ( 0.2)
  Gradient II       0.1700E-01 ( 0.6)   0.0000E+00 ( 0.0)   0.1644E-01 ( 0.6)
  Loading C/GiaQ    0.0000E+00 ( 0.0)   0.0000E+00 ( 0.0)   0.7021E-03 ( 0.0)
  GiaQ Transpose    0.2000E-02 ( 0.1)   0.1000E-05 ( 8.3)   0.2125E-02 ( 0.1)
  Step 7            0.4159E+00 (15.2)   0.0000E+00 ( 0.0)   0.4161E+00 (15.2)
  JobNum=67         0.1100E+00 ( 4.0)   0.0000E+00 ( 0.0)   0.1101E+00 ( 4.0)
  JobNum=167        0.2840E+00 (10.4)   0.0000E+00 ( 0.0)   0.2833E+00 (10.4)
  JobNum=164        0.1700E-01 ( 0.6)   0.0000E+00 ( 0.0)   0.1680E-01 ( 0.6)
  Step 8            0.1000E-02 ( 0.0)   0.0000E+00 ( 0.0)   0.9601E-03 ( 0.0)
  Step 9            0.2021E+01 (73.9)   0.9000E-05 (75.0)   0.2022E+01 (73.9)
  relax_dual_scf    0.7139E+00 (26.1)   0.0000E+00 ( 0.0)   0.7139E+00 (26.1)
  DB Lagrangian     0.2230E+00 ( 8.2)   0.0000E+00 ( 0.0)   0.2227E+00 ( 8.1)
  DB Z-vector       0.4909E+00 (17.9)   0.0000E+00 ( 0.0)   0.4911E+00 (17.9)
  scf_dual_grad     0.1307E+01 (47.8)   0.9000E-05 (75.0)   0.1308E+01 (47.8)
  2e AO-DERIs       0.1297E+01 (47.4)   0.9000E-05 (75.0)   0.1298E+01 (47.4)
 ------------------------------------------------------------------------------
   Grand Totals     0.2736E+01          0.1200E-04          0.2737E+01
 ------------------------------------------------------------------------------

Symmetry turned back on
cdman timing      0.001 seconds
Symmetry turned off temporarily
 Analysis of SCF Wavefunction
 
 --------------------------------------------------------------
                    Orbital Energies (a.u.)
 --------------------------------------------------------------
 
 Alpha MOs
 -- Occupied --
-20.531 -11.291 -11.220 -11.208  -1.346  -1.059  -0.920  -0.816
 -0.686  -0.626  -0.596  -0.589  -0.536  -0.504  -0.501  -0.474
 -0.442
 -- Virtual --
  0.211   0.231   0.279   0.291   0.313   0.320   0.335   0.335
  0.397   0.408   0.430   0.722   0.736   0.742   0.773   0.809
  0.914   0.929   0.939   1.001   1.062   1.126   1.150   1.162
  1.170   1.178   1.199   1.211   1.239   1.294   1.324   1.452
  1.604   1.661   1.702   1.815   1.869   1.930   2.068   2.117
  2.218   2.249   2.274   2.297   2.407   2.501   2.584   2.605
  2.677   2.726   2.759   2.804   2.916   3.075   3.215   4.163
  4.577   4.715   4.895
 --------------------------------------------------------------
 
          Ground-State Mulliken Net Atomic Charges

     Atom                 Charge (a.u.)
  ----------------------------------------
      1 C                    -0.465849
      2 C                    -0.303490
      3 H                     0.150409
      4 H                     0.158270
      5 H                     0.155365
      6 H                     0.141815
      7 C                    -0.040311
      8 H                     0.166710
      9 H                     0.139983
     10 H                     0.159833
     11 O                    -0.672435
     12 H                     0.409701
  ----------------------------------------
  Sum of atomic charges =     0.000000

 -----------------------------------------------------------------
                    Cartesian Multipole Moments
 -----------------------------------------------------------------
    Charge (ESU x 10^10)
                 0.0000
    Dipole Moment (Debye)
         X       1.0718      Y       0.2466      Z       1.4813
       Tot       1.8449
    Quadrupole Moments (Debye-Ang)
        XX     -29.1342     XY      -1.2778     YY     -25.9234
        XZ      -3.5919     YZ       0.9137     ZZ     -25.6692
    Octopole Moments (Debye-Ang^2)
       XXX      -4.9210    XXY       5.5507    XYY      -3.5145
       YYY       1.7118    XXZ       7.6998    XYZ      -1.8164
       YYZ       0.3230    XZZ      -3.6943    YZZ       0.2604
       ZZZ       1.0783
    Hexadecapole Moments (Debye-Ang^3)
      XXXX    -375.6261   XXXY      -9.7067   XXYY     -71.1861
      XYYY      -2.4848   YYYY     -75.8973   XXXZ     -19.3330
      XXYZ       3.5674   XYYZ      -2.0234   YYYZ       1.0692
      XXZZ     -67.6396   XYZZ      -2.1041   YYZZ     -18.6269
      XZZZ      -4.5855   YZZZ       0.5995   ZZZZ     -47.9821
 -----------------------------------------------------------------
 DrvMan is completing analytic gradient of the MP2 energy
 Gradient time:  CPU 0.00 s  wall 0.00 s
 ------------------------------------------------------------------------------
                     drvman        : Timing summary (seconds)
 ------------------------------------------------------------------------------
     job step          cpu (% of tot)      sys (% of tot)     wall (% of tot)
 ------------------------------------------------------------------------------
 ------------------------------------------------------------------------------
   Grand Totals     0.0000E+00          0.0000E+00          0.1502E-04
 ------------------------------------------------------------------------------
 Geometry Optimization Parameters
   NAtoms,    NIC,     NZ,  NCons,   NDum,   NFix, NCnnct, MaxDiis
       12      75       0       2       0       0       0       0

 Cartesian Hessian Update
 Hessian Updated using BFGS Update


** CONSTRAINED OPTIMIZATION IN DELOCALIZED INTERNAL COORDINATES **
   Searching for a Minimum

   Optimization Cycle:   8

                       Coordinates (Angstroms)
     ATOM                X               Y               Z
      1  C         1.8980163992   -0.1297654592   -0.0178548486
      2  C         0.5167104869    0.5195882123    0.0344605191
      3  H         2.0764121043   -0.7542695871    0.8601697094
      4  H         2.6859357461    0.6237038584   -0.0563912506
      5  H         1.9931099556   -0.7615679345   -0.9027828748
      6  H         0.4404513765    1.1827863336    0.9008975745
      7  C        -0.6024662085   -0.5105450293    0.0769919146
      8  H         0.3612501051    1.1366425049   -0.8530218716
      9  H        -0.6224319999   -1.0340739624    1.0384589789
     10  H        -0.4522550902   -1.2566487402   -0.7045215808
     11  O        -1.8933582540    0.0716644397   -0.2211326138
     12  H        -2.1550950080    0.5734682928    0.5832160549
   Point Group: c1    Number of degrees of freedom:    30


   Energy is   -193.668269676

              Constraints and their Current Values
                                        Value     Constraint
   Dihedral:        1   2   7  11     -165.000     -165.000
   Dihedral:        2   7  11  12      -75.000      -75.000
 GETINT wrote B to file, NVib is           30
 Hessian Updated using BFGS Update

 28 Hessian modes will be used to form the next step
  Hessian Eigenvalues:
     0.014476    0.019291    0.069670    0.077992    0.083604    0.084508
     0.085717    0.102160    0.116711    0.129104    0.132975    0.159719
     0.160774    0.166465    0.177063    0.219644    0.247760    0.297587
     0.319185    0.321843    0.324574    0.324709    0.324920    0.326854
     0.334571    0.360385    0.432059    0.489260

 Minimum Search - Taking Simple RFO Step
 Searching for Lamda that Minimizes Along All modes
 Value Taken    Lamda =   0.00000000
 Step Taken.  Stepsize is  0.007360

                             Maximum     Tolerance    Cnvgd?
         Gradient           0.000089      0.000300     YES
         Displacement       0.004374      0.001200      NO
         Energy change     -0.000001      0.000001     YES


                       Distance Matrix (Angstroms)
             C (  1)   C (  2)   H (  3)   H (  4)   H (  5)   H (  6)
   C (  2)  1.527221
   H (  3)  1.092134  2.176506
   H (  4)  1.090879  2.173622  1.763637
   H (  5)  1.091474  2.167843  1.764935  1.765039
   H (  6)  2.165963  1.093783  2.535786  2.504231  3.073195
   C (  7)  2.531087  1.521690  2.801635  3.481077  2.785675  2.152642
   H (  8)  2.159385  1.092039  3.074468  2.510356  2.503726  1.756313
   H (  9)  2.878582  2.172447  2.719161  3.859044  3.268599  2.462339
   H ( 10)  2.695395  2.154067  3.015759  3.715379  2.502843  3.053709
   O ( 11)  3.802160  2.464629  4.196482  4.615390  4.032810  2.817838
   H ( 12)  4.157347  2.728109  4.443562  4.883359  4.604142  2.684968
             C (  7)   H (  8)   H (  9)   H ( 10)   O ( 11)
   H (  8)  2.122946
   H (  9)  1.094943  3.042588
   H ( 10)  1.090870  2.532131  1.765356
   O ( 11)  1.447152  2.572299  2.103445  2.018628
   H ( 12)  1.960103  2.951599  2.267266  2.811985  0.983509
 
 Final energy is   -193.668269676107     


 ******************************
 **  OPTIMIZATION CONVERGED  **
 ******************************

Z-matrix Print:
$molecule
0 1
C 
H  1 1.090870
H  1 1.094943 2 107.732344
O  1 1.447152 2 104.501616 3 118.023617 0
H  4 0.983509 1 105.912985 2 -165.867655 0
C  1 1.521690 2 109.981372 3 -121.349570 0
H  6 1.092039 1 107.489522 2 -71.875304 0
H  6 1.093783 1 109.697207 2 172.203854 0
C  6 1.527221 1 112.230471 2 49.136365 0
H  9 1.090879 6 111.149626 1 -179.516533 0
H  9 1.091474 6 110.652136 1 -59.581480 0
H  9 1.092134 6 111.304837 1 60.330073 0
$end

Symmetry turned off temporarily
 Analysis of SCF Wavefunction
 
 --------------------------------------------------------------
                    Orbital Energies (a.u.)
 --------------------------------------------------------------
 
 Alpha MOs
 -- Occupied --
-20.531 -11.291 -11.220 -11.208  -1.346  -1.059  -0.920  -0.816
 -0.686  -0.626  -0.596  -0.589  -0.536  -0.504  -0.501  -0.474
 -0.442
 -- Virtual --
  0.211   0.231   0.279   0.291   0.313   0.320   0.335   0.335
  0.397   0.408   0.430   0.722   0.736   0.742   0.773   0.809
  0.914   0.929   0.939   1.001   1.062   1.126   1.150   1.162
  1.170   1.178   1.199   1.211   1.239   1.294   1.324   1.452
  1.604   1.661   1.702   1.815   1.869   1.930   2.068   2.117
  2.218   2.249   2.274   2.297   2.407   2.501   2.584   2.605
  2.677   2.726   2.759   2.804   2.916   3.075   3.215   4.163
  4.577   4.715   4.895
 --------------------------------------------------------------
 
          Ground-State Mulliken Net Atomic Charges

     Atom                 Charge (a.u.)
  ----------------------------------------
      1 C                    -0.465849
      2 C                    -0.303490
      3 H                     0.150409
      4 H                     0.158270
      5 H                     0.155365
      6 H                     0.141815
      7 C                    -0.040311
      8 H                     0.166710
      9 H                     0.139983
     10 H                     0.159833
     11 O                    -0.672435
     12 H                     0.409701
  ----------------------------------------
  Sum of atomic charges =     0.000000

 -----------------------------------------------------------------
                    Cartesian Multipole Moments
 -----------------------------------------------------------------
    Charge (ESU x 10^10)
                 0.0000
    Dipole Moment (Debye)
         X       1.0718      Y       0.2466      Z       1.4813
       Tot       1.8449
    Quadrupole Moments (Debye-Ang)
        XX     -29.1342     XY      -1.2778     YY     -25.9234
        XZ      -3.5919     YZ       0.9137     ZZ     -25.6692
    Octopole Moments (Debye-Ang^2)
       XXX      -4.9210    XXY       5.5507    XYY      -3.5145
       YYY       1.7118    XXZ       7.6998    XYZ      -1.8164
       YYZ       0.3230    XZZ      -3.6943    YZZ       0.2604
       ZZZ       1.0783
    Hexadecapole Moments (Debye-Ang^3)
      XXXX    -375.6261   XXXY      -9.7067   XXYY     -71.1861
      XYYY      -2.4848   YYYY     -75.8973   XXXZ     -19.3330
      XXYZ       3.5674   XYYZ      -2.0234   YYYZ       1.0692
      XXZZ     -67.6396   XYZZ      -2.1041   YYZZ     -18.6269
      XZZZ      -4.5855   YZZZ       0.5995   ZZZZ     -47.9821
 -----------------------------------------------------------------
 JobOver = TRUE
Archival summary:
1\1\vsp-compute-14.Stanford.EDU\OPT\ProcedureUnspecified\6-31G*\138\leeping\FriMay2305:27:412014FriMay2305:27:412014\0\\#,OPT,ProcedureUnspecified,6-31G*,\\0,1\C\H,1,1.09087\H,1,1.09494,2,107.732\O,1,1.44715,2,104.502,3,118.024,0\H,4,0.983509,1,105.913,2,-165.868,0\C,1,1.52169,2,109.981,3,-121.35,0\H,6,1.09204,1,107.49,2,-71.8753,0\H,6,1.09378,1,109.697,2,172.204,0\C,6,1.52722,1,112.23,2,49.1364,0\H,9,1.09088,6,111.15,1,-179.517,0\H,9,1.09147,6,110.652,1,-59.5815,0\H,9,1.09213,6,111.305,1,60.3301,0\\HF=-193.087773\\@

 Total job time:  26.14s(wall), 25.44s(cpu) 
 Fri May 23 05:27:41 2014

        *************************************************************
        *                                                           *
        *  Thank you very much for using Q-Chem.  Have a nice day.  *
        *                                                           *
        *************************************************************


*** MISSION COMPLETED -- STARFLEET OUT ***

Optimization with standard settings.
